
     Program PWSCF v.7.0 starts on 14Sep2023 at 11: 4:36 

     This program is part of the open-source Quantum ESPRESSO suite
     for quantum simulation of materials; please cite
         "P. Giannozzi et al., J. Phys.:Condens. Matter 21 395502 (2009);
         "P. Giannozzi et al., J. Phys.:Condens. Matter 29 465901 (2017);
         "P. Giannozzi et al., J. Chem. Phys. 152 154105 (2020);
          URL http://www.quantum-espresso.org", 
     in publications or presentations arising from this work. More details at
     http://www.quantum-espresso.org/quote

     Parallel version (MPI), running on    36 processors

     MPI processes distributed on     1 nodes
     R & G space division:  proc/nbgrp/npool/nimage =      36
     190381 MiB available memory on the printing compute node when the environment starts

     Reading input from m1.bands2.in

     Current dimensions of program PWSCF are:
     Max number of different atomic species (ntypx) = 10
     Max number of k-points (npk) =  40000
     Max angular momentum in pseudopotentials (lmaxx) =  4

     Atomic positions and unit cell read from directory:
     ./work/m1.save/
     Atomic positions from file used, from input discarded

     Message from routine setup:
     using ibrav=0 with symmetry is DISCOURAGED, use correct ibrav instead

     Subspace diagonalization in iterative solution of the eigenvalue problem:
     one sub-group per band group will be used
     scalapack distributed-memory algorithm (size of sub-group:  6*  6 procs)


     Parallelization info
     --------------------
     sticks:   dense  smooth     PW     G-vecs:    dense   smooth      PW
     Min         172      57     16                 9111     1751     261
     Max         173      58     17                 9116     1755     264
     Sum        6223    2065    591               328125    63089    9443

     Using Slab Decomposition



     bravais-lattice index     =            0
     lattice parameter (alat)  =      10.8691  a.u.
     unit-cell volume          =     798.2653 (a.u.)^3
     number of atoms/cell      =           12
     number of atomic types    =            2
     number of electrons       =       100.00
     number of Kohn-Sham states=           70
     kinetic-energy cutoff     =      70.0000  Ry
     charge density cutoff     =     840.0000  Ry
     Exchange-correlation= SLA  PW   PBE  PBE
                           (   1   4   3   4   0   0   0)

     celldm(1)=  10.869138  celldm(2)=   0.000000  celldm(3)=   0.000000
     celldm(4)=   0.000000  celldm(5)=   0.000000  celldm(6)=   0.000000

     crystal axes: (cart. coord. in units of alat)
               a(1) = (   0.000000   0.000000   1.000000 )  
               a(2) = (   0.788949   0.000000   0.000000 )  
               a(3) = (   0.000000   0.787976  -0.504825 )  

     reciprocal axes: (cart. coord. in units 2 pi/alat)
               b(1) = ( -0.000000  0.640660  1.000000 )  
               b(2) = (  1.267508 -0.000000  0.000000 )  
               b(3) = (  0.000000  1.269075  0.000000 )  


     PseudoPot. # 1 for V  read from file:
     ./pseudo/v_pbe_v1.4.uspp.F.UPF
     MD5 check sum: 22b79981416ebb76fdaf5b1b8640f6fb
     Pseudo is Ultrasoft + core correction, Zval = 13.0
     Generated by new atomic code, or converted to UPF format
     Using radial grid of  853 points,  6 beta functions with: 
                l(1) =   0
                l(2) =   0
                l(3) =   1
                l(4) =   1
                l(5) =   2
                l(6) =   2
     Q(r) pseudized with  8 coefficients,  rinner =    1.100   1.100   1.100
                                                       1.100   1.100

     PseudoPot. # 2 for O  read from file:
     ./pseudo/o_pbe_v1.2.uspp.F.UPF
     MD5 check sum: 734c27235a0248c51dbae37a1fbe46ec
     Pseudo is Ultrasoft + core correction, Zval =  6.0
     Generated by new atomic code, or converted to UPF format
     Using radial grid of  737 points,  5 beta functions with: 
                l(1) =   0
                l(2) =   0
                l(3) =   1
                l(4) =   1
                l(5) =   2
     Q(r) pseudized with  8 coefficients,  rinner =    0.900   0.900   0.900
                                                       0.900   0.900

     atomic species   valence    mass     pseudopotential
        V             13.00    50.94000     V ( 1.00)
        O              6.00    16.00000     O ( 1.00)

      4 Sym. Ops., with inversion, found ( 3 have fractional translation)


                                    s                        frac. trans.

      isym =  1     identity                                     

 cryst.   s( 1) = (     1          0          0      )
                  (     0          1          0      )
                  (     0          0          1      )

 cart.    s( 1) = (  1.0000000  0.0000000  0.0000000 )
                  (  0.0000000  1.0000000  0.0000000 )
                  (  0.0000000  0.0000000  1.0000000 )


      isym =  2     180 deg rotation - cart. axis [1,0,0]        

 cryst.   s( 2) = (    -1          0          0      )    f =(  0.5000000 )
                  (     0          1          0      )       ( -0.5000000 )
                  (     0          0         -1      )       (  0.5000000 )

 cart.    s( 2) = (  1.0000000  0.0000000  0.0000000 )    f =( -0.3944747 )
                  (  0.0000000 -1.0000000  0.0000000 )       (  0.3939879 )
                  (  0.0000000  0.0000000 -1.0000000 )       (  0.2475877 )


      isym =  3     inversion                                    

 cryst.   s( 3) = (    -1          0          0      )    f =(  0.5000000 )
                  (     0         -1          0      )       (  0.0000000 )
                  (     0          0         -1      )       (  0.0000000 )

 cart.    s( 3) = ( -1.0000000  0.0000000  0.0000000 )    f =(  0.0000000 )
                  (  0.0000000 -1.0000000  0.0000000 )       (  0.0000000 )
                  (  0.0000000  0.0000000 -1.0000000 )       (  0.5000000 )


      isym =  4     inv. 180 deg rotation - cart. axis [1,0,0]   

 cryst.   s( 4) = (     1          0          0      )    f =(  0.0000000 )
                  (     0         -1          0      )       (  0.5000000 )
                  (     0          0          1      )       ( -0.5000000 )

 cart.    s( 4) = ( -1.0000000  0.0000000  0.0000000 )    f =(  0.3944747 )
                  (  0.0000000  1.0000000  0.0000000 )       ( -0.3939879 )
                  (  0.0000000  0.0000000  1.0000000 )       (  0.2524123 )


   Cartesian axes

     site n.     atom                  positions (alat units)
         1           V   tau(   1) = (   0.7723341   0.7671259   0.0190630  )
         2           V   tau(   2) = (   0.8055646   0.8088256   0.4712877  )
         3           V   tau(   3) = (   0.4110900   0.3731380   0.2714753  )
         4           V   tau(   4) = (   0.3778594   0.4148377   0.7237000  )
         5           O   tau(   5) = (   0.2346493   0.2354787  -0.0003518  )
         6           O   tau(   6) = (   0.2273358   0.2296240   0.4967290  )
         7           O   tau(   7) = (   0.5616136   0.5583517   0.4984463  )
         8           O   tau(   8) = (   0.5543000   0.5524971  -0.0044729  )
         9           O   tau(   9) = (   0.6291240   0.1585092   0.2479395  )
        10           O   tau(  10) = (   0.6218104   0.1643639   0.7508586  )
        11           O   tau(  11) = (   0.1671389   0.6236119   0.2443167  )
        12           O   tau(  12) = (   0.1598254   0.6294665  -0.2527641  )

   Crystallographic axes

     site n.     atom                  positions (cryst. coord.)
         1           V   tau(   1) = (  0.5105300  0.9789400  0.9735400  )
         2           V   tau(   2) = (  0.9894700  1.0210600  1.0264600  )
         3           V   tau(   3) = (  0.5105300  0.5210600  0.4735400  )
         4           V   tau(   4) = (  0.9894700  0.4789400  0.5264600  )
         5           O   tau(   5) = (  0.1505100  0.2974200  0.2988400  )
         6           O   tau(   6) = (  0.6438400  0.2881500  0.2914100  )
         7           O   tau(   7) = (  0.8561600  0.7118500  0.7085900  )
         8           O   tau(   8) = (  0.3494900  0.7025800  0.7011600  )
         9           O   tau(   9) = (  0.3494900  0.7974200  0.2011600  )
        10           O   tau(  10) = (  0.8561600  0.7881500  0.2085900  )
        11           O   tau(  11) = (  0.6438400  0.2118500  0.7914100  )
        12           O   tau(  12) = (  0.1505100  0.2025800  0.7988400  )

     number of k points=   221  Gaussian smearing, width (Ry)=  0.0100
                       cart. coord. in units 2pi/alat
        k(    1) = (   0.0000000   0.0000000   0.0000000), wk =   0.0090498
        k(    2) = (   0.0000000   0.0317269   0.0000000), wk =   0.0090498
        k(    3) = (   0.0000000   0.0634537   0.0000000), wk =   0.0090498
        k(    4) = (   0.0000000   0.0951806   0.0000000), wk =   0.0090498
        k(    5) = (   0.0000000   0.1269075   0.0000000), wk =   0.0090498
        k(    6) = (   0.0000000   0.1586343   0.0000000), wk =   0.0090498
        k(    7) = (   0.0000000   0.1903612   0.0000000), wk =   0.0090498
        k(    8) = (   0.0000000   0.2220881   0.0000000), wk =   0.0090498
        k(    9) = (   0.0000000   0.2538149   0.0000000), wk =   0.0090498
        k(   10) = (   0.0000000   0.2855418   0.0000000), wk =   0.0090498
        k(   11) = (   0.0000000   0.3172687   0.0000000), wk =   0.0090498
        k(   12) = (   0.0000000   0.3489955   0.0000000), wk =   0.0090498
        k(   13) = (   0.0000000   0.3807224   0.0000000), wk =   0.0090498
        k(   14) = (   0.0000000   0.4124493   0.0000000), wk =   0.0090498
        k(   15) = (   0.0000000   0.4441761   0.0000000), wk =   0.0090498
        k(   16) = (   0.0000000   0.4759030   0.0000000), wk =   0.0090498
        k(   17) = (   0.0000000   0.5076298   0.0000000), wk =   0.0090498
        k(   18) = (   0.0000000   0.5393567   0.0000000), wk =   0.0090498
        k(   19) = (   0.0000000   0.5710836   0.0000000), wk =   0.0090498
        k(   20) = (   0.0000000   0.6028104   0.0000000), wk =   0.0090498
        k(   21) = (   0.0000000   0.6345373   0.0000000), wk =   0.0090498
        k(   22) = (   0.0316877   0.6345373   0.0000000), wk =   0.0090498
        k(   23) = (   0.0633754   0.6345373   0.0000000), wk =   0.0090498
        k(   24) = (   0.0950631   0.6345373   0.0000000), wk =   0.0090498
        k(   25) = (   0.1267508   0.6345373   0.0000000), wk =   0.0090498
        k(   26) = (   0.1584386   0.6345373   0.0000000), wk =   0.0090498
        k(   27) = (   0.1901263   0.6345373   0.0000000), wk =   0.0090498
        k(   28) = (   0.2218140   0.6345373   0.0000000), wk =   0.0090498
        k(   29) = (   0.2535017   0.6345373   0.0000000), wk =   0.0090498
        k(   30) = (   0.2851894   0.6345373   0.0000000), wk =   0.0090498
        k(   31) = (   0.3168771   0.6345373   0.0000000), wk =   0.0090498
        k(   32) = (   0.3485648   0.6345373   0.0000000), wk =   0.0090498
        k(   33) = (   0.3802525   0.6345373   0.0000000), wk =   0.0090498
        k(   34) = (   0.4119403   0.6345373   0.0000000), wk =   0.0090498
        k(   35) = (   0.4436280   0.6345373   0.0000000), wk =   0.0090498
        k(   36) = (   0.4753157   0.6345373   0.0000000), wk =   0.0090498
        k(   37) = (   0.5070034   0.6345373   0.0000000), wk =   0.0090498
        k(   38) = (   0.5386911   0.6345373   0.0000000), wk =   0.0090498
        k(   39) = (   0.5703788   0.6345373   0.0000000), wk =   0.0090498
        k(   40) = (   0.6020665   0.6345373   0.0000000), wk =   0.0090498
        k(   41) = (   0.6337542   0.6345373   0.0000000), wk =   0.0090498
        k(   42) = (   0.6337542   0.6028104   0.0000000), wk =   0.0090498
        k(   43) = (   0.6337542   0.5710836   0.0000000), wk =   0.0090498
        k(   44) = (   0.6337542   0.5393567   0.0000000), wk =   0.0090498
        k(   45) = (   0.6337542   0.5076298   0.0000000), wk =   0.0090498
        k(   46) = (   0.6337542   0.4759030   0.0000000), wk =   0.0090498
        k(   47) = (   0.6337542   0.4441761   0.0000000), wk =   0.0090498
        k(   48) = (   0.6337542   0.4124493   0.0000000), wk =   0.0090498
        k(   49) = (   0.6337542   0.3807224   0.0000000), wk =   0.0090498
        k(   50) = (   0.6337542   0.3489955   0.0000000), wk =   0.0090498
        k(   51) = (   0.6337542   0.3172687   0.0000000), wk =   0.0090498
        k(   52) = (   0.6337542   0.2855418   0.0000000), wk =   0.0090498
        k(   53) = (   0.6337542   0.2538149   0.0000000), wk =   0.0090498
        k(   54) = (   0.6337542   0.2220881   0.0000000), wk =   0.0090498
        k(   55) = (   0.6337542   0.1903612   0.0000000), wk =   0.0090498
        k(   56) = (   0.6337542   0.1586343   0.0000000), wk =   0.0090498
        k(   57) = (   0.6337542   0.1269075   0.0000000), wk =   0.0090498
        k(   58) = (   0.6337542   0.0951806   0.0000000), wk =   0.0090498
        k(   59) = (   0.6337542   0.0634537   0.0000000), wk =   0.0090498
        k(   60) = (   0.6337542   0.0317269   0.0000000), wk =   0.0090498
        k(   61) = (   0.6337542   0.0000000   0.0000000), wk =   0.0090498
        k(   62) = (   0.6020665   0.0000000   0.0000000), wk =   0.0090498
        k(   63) = (   0.5703788   0.0000000   0.0000000), wk =   0.0090498
        k(   64) = (   0.5386911   0.0000000   0.0000000), wk =   0.0090498
        k(   65) = (   0.5070034   0.0000000   0.0000000), wk =   0.0090498
        k(   66) = (   0.4753157   0.0000000   0.0000000), wk =   0.0090498
        k(   67) = (   0.4436280   0.0000000   0.0000000), wk =   0.0090498
        k(   68) = (   0.4119403   0.0000000   0.0000000), wk =   0.0090498
        k(   69) = (   0.3802525   0.0000000   0.0000000), wk =   0.0090498
        k(   70) = (   0.3485648   0.0000000   0.0000000), wk =   0.0090498
        k(   71) = (   0.3168771   0.0000000   0.0000000), wk =   0.0090498
        k(   72) = (   0.2851894   0.0000000   0.0000000), wk =   0.0090498
        k(   73) = (   0.2535017   0.0000000   0.0000000), wk =   0.0090498
        k(   74) = (   0.2218140   0.0000000   0.0000000), wk =   0.0090498
        k(   75) = (   0.1901263   0.0000000   0.0000000), wk =   0.0090498
        k(   76) = (   0.1584386   0.0000000   0.0000000), wk =   0.0090498
        k(   77) = (   0.1267508   0.0000000   0.0000000), wk =   0.0090498
        k(   78) = (   0.0950631   0.0000000   0.0000000), wk =   0.0090498
        k(   79) = (   0.0633754   0.0000000   0.0000000), wk =   0.0090498
        k(   80) = (   0.0316877   0.0000000   0.0000000), wk =   0.0090498
        k(   81) = (   0.0000000   0.0000000   0.0000000), wk =   0.0090498
        k(   82) = (   0.0000000  -0.0157104   0.0250000), wk =   0.0090498
        k(   83) = (   0.0000000  -0.0314207   0.0500000), wk =   0.0090498
        k(   84) = (   0.0000000  -0.0471311   0.0750000), wk =   0.0090498
        k(   85) = (   0.0000000  -0.0628414   0.1000000), wk =   0.0090498
        k(   86) = (   0.0000000  -0.0785518   0.1250000), wk =   0.0090498
        k(   87) = (   0.0000000  -0.0942622   0.1500000), wk =   0.0090498
        k(   88) = (   0.0000000  -0.1099725   0.1750000), wk =   0.0090498
        k(   89) = (   0.0000000  -0.1256829   0.2000000), wk =   0.0090498
        k(   90) = (   0.0000000  -0.1413933   0.2250000), wk =   0.0090498
        k(   91) = (   0.0000000  -0.1571036   0.2500000), wk =   0.0090498
        k(   92) = (   0.0000000  -0.1728140   0.2750000), wk =   0.0090498
        k(   93) = (   0.0000000  -0.1885243   0.3000000), wk =   0.0090498
        k(   94) = (   0.0000000  -0.2042347   0.3250000), wk =   0.0090498
        k(   95) = (   0.0000000  -0.2199451   0.3500000), wk =   0.0090498
        k(   96) = (   0.0000000  -0.2356554   0.3750000), wk =   0.0090498
        k(   97) = (   0.0000000  -0.2513658   0.4000000), wk =   0.0090498
        k(   98) = (   0.0000000  -0.2670761   0.4250000), wk =   0.0090498
        k(   99) = (   0.0000000  -0.2827865   0.4500000), wk =   0.0090498
        k(  100) = (   0.0000000  -0.2984969   0.4750000), wk =   0.0090498
        k(  101) = (   0.0000000  -0.3142072   0.5000000), wk =   0.0090498
        k(  102) = (   0.0316877  -0.3142072   0.5000000), wk =   0.0090498
        k(  103) = (   0.0633754  -0.3142072   0.5000000), wk =   0.0090498
        k(  104) = (   0.0950631  -0.3142072   0.5000000), wk =   0.0090498
        k(  105) = (   0.1267508  -0.3142072   0.5000000), wk =   0.0090498
        k(  106) = (   0.1584386  -0.3142072   0.5000000), wk =   0.0090498
        k(  107) = (   0.1901263  -0.3142072   0.5000000), wk =   0.0090498
        k(  108) = (   0.2218140  -0.3142072   0.5000000), wk =   0.0090498
        k(  109) = (   0.2535017  -0.3142072   0.5000000), wk =   0.0090498
        k(  110) = (   0.2851894  -0.3142072   0.5000000), wk =   0.0090498
        k(  111) = (   0.3168771  -0.3142072   0.5000000), wk =   0.0090498
        k(  112) = (   0.3485648  -0.3142072   0.5000000), wk =   0.0090498
        k(  113) = (   0.3802525  -0.3142072   0.5000000), wk =   0.0090498
        k(  114) = (   0.4119403  -0.3142072   0.5000000), wk =   0.0090498
        k(  115) = (   0.4436280  -0.3142072   0.5000000), wk =   0.0090498
        k(  116) = (   0.4753157  -0.3142072   0.5000000), wk =   0.0090498
        k(  117) = (   0.5070034  -0.3142072   0.5000000), wk =   0.0090498
        k(  118) = (   0.5386911  -0.3142072   0.5000000), wk =   0.0090498
        k(  119) = (   0.5703788  -0.3142072   0.5000000), wk =   0.0090498
        k(  120) = (   0.6020665  -0.3142072   0.5000000), wk =   0.0090498
        k(  121) = (   0.6337542  -0.3142072   0.5000000), wk =   0.0090498
        k(  122) = (   0.6337542  -0.2984969   0.4750000), wk =   0.0090498
        k(  123) = (   0.6337542  -0.2827865   0.4500000), wk =   0.0090498
        k(  124) = (   0.6337542  -0.2670761   0.4250000), wk =   0.0090498
        k(  125) = (   0.6337542  -0.2513658   0.4000000), wk =   0.0090498
        k(  126) = (   0.6337542  -0.2356554   0.3750000), wk =   0.0090498
        k(  127) = (   0.6337542  -0.2199451   0.3500000), wk =   0.0090498
        k(  128) = (   0.6337542  -0.2042347   0.3250000), wk =   0.0090498
        k(  129) = (   0.6337542  -0.1885243   0.3000000), wk =   0.0090498
        k(  130) = (   0.6337542  -0.1728140   0.2750000), wk =   0.0090498
        k(  131) = (   0.6337542  -0.1571036   0.2500000), wk =   0.0090498
        k(  132) = (   0.6337542  -0.1413933   0.2250000), wk =   0.0090498
        k(  133) = (   0.6337542  -0.1256829   0.2000000), wk =   0.0090498
        k(  134) = (   0.6337542  -0.1099725   0.1750000), wk =   0.0090498
        k(  135) = (   0.6337542  -0.0942622   0.1500000), wk =   0.0090498
        k(  136) = (   0.6337542  -0.0785518   0.1250000), wk =   0.0090498
        k(  137) = (   0.6337542  -0.0628414   0.1000000), wk =   0.0090498
        k(  138) = (   0.6337542  -0.0471311   0.0750000), wk =   0.0090498
        k(  139) = (   0.6337542  -0.0314207   0.0500000), wk =   0.0090498
        k(  140) = (   0.6337542  -0.0157104   0.0250000), wk =   0.0090498
        k(  141) = (   0.6337542   0.0000000   0.0000000), wk =   0.0090498
        k(  142) = (   0.6020665   0.0000000   0.0000000), wk =   0.0090498
        k(  143) = (   0.5703788   0.0000000   0.0000000), wk =   0.0090498
        k(  144) = (   0.5386911   0.0000000   0.0000000), wk =   0.0090498
        k(  145) = (   0.5070034   0.0000000   0.0000000), wk =   0.0090498
        k(  146) = (   0.4753157   0.0000000   0.0000000), wk =   0.0090498
        k(  147) = (   0.4436280   0.0000000   0.0000000), wk =   0.0090498
        k(  148) = (   0.4119403   0.0000000   0.0000000), wk =   0.0090498
        k(  149) = (   0.3802525   0.0000000   0.0000000), wk =   0.0090498
        k(  150) = (   0.3485648   0.0000000   0.0000000), wk =   0.0090498
        k(  151) = (   0.3168771   0.0000000   0.0000000), wk =   0.0090498
        k(  152) = (   0.2851894   0.0000000   0.0000000), wk =   0.0090498
        k(  153) = (   0.2535017   0.0000000   0.0000000), wk =   0.0090498
        k(  154) = (   0.2218140   0.0000000   0.0000000), wk =   0.0090498
        k(  155) = (   0.1901263   0.0000000   0.0000000), wk =   0.0090498
        k(  156) = (   0.1584386   0.0000000   0.0000000), wk =   0.0090498
        k(  157) = (   0.1267508   0.0000000   0.0000000), wk =   0.0090498
        k(  158) = (   0.0950631   0.0000000   0.0000000), wk =   0.0090498
        k(  159) = (   0.0633754   0.0000000   0.0000000), wk =   0.0090498
        k(  160) = (   0.0316877   0.0000000   0.0000000), wk =   0.0090498
        k(  161) = (   0.0000000   0.0000000   0.0000000), wk =   0.0090498
        k(  162) = (   0.0000000   0.0160165   0.0250000), wk =   0.0090498
        k(  163) = (   0.0000000   0.0320330   0.0500000), wk =   0.0090498
        k(  164) = (   0.0000000   0.0480495   0.0750000), wk =   0.0090498
        k(  165) = (   0.0000000   0.0640660   0.1000000), wk =   0.0090498
        k(  166) = (   0.0000000   0.0800825   0.1250000), wk =   0.0090498
        k(  167) = (   0.0000000   0.0960990   0.1500000), wk =   0.0090498
        k(  168) = (   0.0000000   0.1121155   0.1750000), wk =   0.0090498
        k(  169) = (   0.0000000   0.1281320   0.2000000), wk =   0.0090498
        k(  170) = (   0.0000000   0.1441485   0.2250000), wk =   0.0090498
        k(  171) = (   0.0000000   0.1601650   0.2500000), wk =   0.0090498
        k(  172) = (   0.0000000   0.1761815   0.2750000), wk =   0.0090498
        k(  173) = (   0.0000000   0.1921980   0.3000000), wk =   0.0090498
        k(  174) = (   0.0000000   0.2082146   0.3250000), wk =   0.0090498
        k(  175) = (   0.0000000   0.2242311   0.3500000), wk =   0.0090498
        k(  176) = (   0.0000000   0.2402476   0.3750000), wk =   0.0090498
        k(  177) = (   0.0000000   0.2562641   0.4000000), wk =   0.0090498
        k(  178) = (   0.0000000   0.2722806   0.4250000), wk =   0.0090498
        k(  179) = (   0.0000000   0.2882971   0.4500000), wk =   0.0090498
        k(  180) = (   0.0000000   0.3043136   0.4750000), wk =   0.0090498
        k(  181) = (   0.0000000   0.3203301   0.5000000), wk =   0.0090498
        k(  182) = (   0.0316877   0.3203301   0.5000000), wk =   0.0090498
        k(  183) = (   0.0633754   0.3203301   0.5000000), wk =   0.0090498
        k(  184) = (   0.0950631   0.3203301   0.5000000), wk =   0.0090498
        k(  185) = (   0.1267508   0.3203301   0.5000000), wk =   0.0090498
        k(  186) = (   0.1584386   0.3203301   0.5000000), wk =   0.0090498
        k(  187) = (   0.1901263   0.3203301   0.5000000), wk =   0.0090498
        k(  188) = (   0.2218140   0.3203301   0.5000000), wk =   0.0090498
        k(  189) = (   0.2535017   0.3203301   0.5000000), wk =   0.0090498
        k(  190) = (   0.2851894   0.3203301   0.5000000), wk =   0.0090498
        k(  191) = (   0.3168771   0.3203301   0.5000000), wk =   0.0090498
        k(  192) = (   0.3485648   0.3203301   0.5000000), wk =   0.0090498
        k(  193) = (   0.3802525   0.3203301   0.5000000), wk =   0.0090498
        k(  194) = (   0.4119403   0.3203301   0.5000000), wk =   0.0090498
        k(  195) = (   0.4436280   0.3203301   0.5000000), wk =   0.0090498
        k(  196) = (   0.4753157   0.3203301   0.5000000), wk =   0.0090498
        k(  197) = (   0.5070034   0.3203301   0.5000000), wk =   0.0090498
        k(  198) = (   0.5386911   0.3203301   0.5000000), wk =   0.0090498
        k(  199) = (   0.5703788   0.3203301   0.5000000), wk =   0.0090498
        k(  200) = (   0.6020665   0.3203301   0.5000000), wk =   0.0090498
        k(  201) = (   0.6337542   0.3203301   0.5000000), wk =   0.0090498
        k(  202) = (   0.6337542   0.3043136   0.4750000), wk =   0.0090498
        k(  203) = (   0.6337542   0.2882971   0.4500000), wk =   0.0090498
        k(  204) = (   0.6337542   0.2722806   0.4250000), wk =   0.0090498
        k(  205) = (   0.6337542   0.2562641   0.4000000), wk =   0.0090498
        k(  206) = (   0.6337542   0.2402476   0.3750000), wk =   0.0090498
        k(  207) = (   0.6337542   0.2242311   0.3500000), wk =   0.0090498
        k(  208) = (   0.6337542   0.2082146   0.3250000), wk =   0.0090498
        k(  209) = (   0.6337542   0.1921980   0.3000000), wk =   0.0090498
        k(  210) = (   0.6337542   0.1761815   0.2750000), wk =   0.0090498
        k(  211) = (   0.6337542   0.1601650   0.2500000), wk =   0.0090498
        k(  212) = (   0.6337542   0.1441485   0.2250000), wk =   0.0090498
        k(  213) = (   0.6337542   0.1281320   0.2000000), wk =   0.0090498
        k(  214) = (   0.6337542   0.1121155   0.1750000), wk =   0.0090498
        k(  215) = (   0.6337542   0.0960990   0.1500000), wk =   0.0090498
        k(  216) = (   0.6337542   0.0800825   0.1250000), wk =   0.0090498
        k(  217) = (   0.6337542   0.0640660   0.1000000), wk =   0.0090498
        k(  218) = (   0.6337542   0.0480495   0.0750000), wk =   0.0090498
        k(  219) = (   0.6337542   0.0320330   0.0500000), wk =   0.0090498
        k(  220) = (   0.6337542   0.0160165   0.0250000), wk =   0.0090498
        k(  221) = (   0.6337542   0.0000000   0.0000000), wk =   0.0090498

                       cryst. coord.
        k(    1) = (   0.0000000   0.0000000   0.0000000), wk =   0.0090498
        k(    2) = (   0.0000000   0.0000000   0.0250000), wk =   0.0090498
        k(    3) = (   0.0000000   0.0000000   0.0500000), wk =   0.0090498
        k(    4) = (   0.0000000   0.0000000   0.0750000), wk =   0.0090498
        k(    5) = (   0.0000000   0.0000000   0.1000000), wk =   0.0090498
        k(    6) = (   0.0000000   0.0000000   0.1250000), wk =   0.0090498
        k(    7) = (   0.0000000   0.0000000   0.1500000), wk =   0.0090498
        k(    8) = (   0.0000000   0.0000000   0.1750000), wk =   0.0090498
        k(    9) = (   0.0000000   0.0000000   0.2000000), wk =   0.0090498
        k(   10) = (   0.0000000   0.0000000   0.2250000), wk =   0.0090498
        k(   11) = (   0.0000000   0.0000000   0.2500000), wk =   0.0090498
        k(   12) = (   0.0000000   0.0000000   0.2750000), wk =   0.0090498
        k(   13) = (   0.0000000   0.0000000   0.3000000), wk =   0.0090498
        k(   14) = (   0.0000000   0.0000000   0.3250000), wk =   0.0090498
        k(   15) = (   0.0000000   0.0000000   0.3500000), wk =   0.0090498
        k(   16) = (   0.0000000   0.0000000   0.3750000), wk =   0.0090498
        k(   17) = (   0.0000000   0.0000000   0.4000000), wk =   0.0090498
        k(   18) = (   0.0000000   0.0000000   0.4250000), wk =   0.0090498
        k(   19) = (   0.0000000   0.0000000   0.4500000), wk =   0.0090498
        k(   20) = (   0.0000000   0.0000000   0.4750000), wk =   0.0090498
        k(   21) = (   0.0000000   0.0000000   0.5000000), wk =   0.0090498
        k(   22) = (   0.0000000   0.0250000   0.5000000), wk =   0.0090498
        k(   23) = (   0.0000000   0.0500000   0.5000000), wk =   0.0090498
        k(   24) = (   0.0000000   0.0750000   0.5000000), wk =   0.0090498
        k(   25) = (   0.0000000   0.1000000   0.5000000), wk =   0.0090498
        k(   26) = (   0.0000000   0.1250000   0.5000000), wk =   0.0090498
        k(   27) = (   0.0000000   0.1500000   0.5000000), wk =   0.0090498
        k(   28) = (   0.0000000   0.1750000   0.5000000), wk =   0.0090498
        k(   29) = (   0.0000000   0.2000000   0.5000000), wk =   0.0090498
        k(   30) = (   0.0000000   0.2250000   0.5000000), wk =   0.0090498
        k(   31) = (   0.0000000   0.2500000   0.5000000), wk =   0.0090498
        k(   32) = (   0.0000000   0.2750000   0.5000000), wk =   0.0090498
        k(   33) = (   0.0000000   0.3000000   0.5000000), wk =   0.0090498
        k(   34) = (   0.0000000   0.3250000   0.5000000), wk =   0.0090498
        k(   35) = (   0.0000000   0.3500000   0.5000000), wk =   0.0090498
        k(   36) = (   0.0000000   0.3750000   0.5000000), wk =   0.0090498
        k(   37) = (   0.0000000   0.4000000   0.5000000), wk =   0.0090498
        k(   38) = (   0.0000000   0.4250000   0.5000000), wk =   0.0090498
        k(   39) = (   0.0000000   0.4500000   0.5000000), wk =   0.0090498
        k(   40) = (   0.0000000   0.4750000   0.5000000), wk =   0.0090498
        k(   41) = (   0.0000000   0.5000000   0.5000000), wk =   0.0090498
        k(   42) = (   0.0000000   0.5000000   0.4750000), wk =   0.0090498
        k(   43) = (   0.0000000   0.5000000   0.4500000), wk =   0.0090498
        k(   44) = (   0.0000000   0.5000000   0.4250000), wk =   0.0090498
        k(   45) = (   0.0000000   0.5000000   0.4000000), wk =   0.0090498
        k(   46) = (   0.0000000   0.5000000   0.3750000), wk =   0.0090498
        k(   47) = (   0.0000000   0.5000000   0.3500000), wk =   0.0090498
        k(   48) = (   0.0000000   0.5000000   0.3250000), wk =   0.0090498
        k(   49) = (   0.0000000   0.5000000   0.3000000), wk =   0.0090498
        k(   50) = (   0.0000000   0.5000000   0.2750000), wk =   0.0090498
        k(   51) = (   0.0000000   0.5000000   0.2500000), wk =   0.0090498
        k(   52) = (   0.0000000   0.5000000   0.2250000), wk =   0.0090498
        k(   53) = (   0.0000000   0.5000000   0.2000000), wk =   0.0090498
        k(   54) = (   0.0000000   0.5000000   0.1750000), wk =   0.0090498
        k(   55) = (   0.0000000   0.5000000   0.1500000), wk =   0.0090498
        k(   56) = (   0.0000000   0.5000000   0.1250000), wk =   0.0090498
        k(   57) = (   0.0000000   0.5000000   0.1000000), wk =   0.0090498
        k(   58) = (   0.0000000   0.5000000   0.0750000), wk =   0.0090498
        k(   59) = (   0.0000000   0.5000000   0.0500000), wk =   0.0090498
        k(   60) = (   0.0000000   0.5000000   0.0250000), wk =   0.0090498
        k(   61) = (   0.0000000   0.5000000   0.0000000), wk =   0.0090498
        k(   62) = (   0.0000000   0.4750000   0.0000000), wk =   0.0090498
        k(   63) = (   0.0000000   0.4500000   0.0000000), wk =   0.0090498
        k(   64) = (   0.0000000   0.4250000   0.0000000), wk =   0.0090498
        k(   65) = (   0.0000000   0.4000000   0.0000000), wk =   0.0090498
        k(   66) = (   0.0000000   0.3750000   0.0000000), wk =   0.0090498
        k(   67) = (   0.0000000   0.3500000   0.0000000), wk =   0.0090498
        k(   68) = (   0.0000000   0.3250000   0.0000000), wk =   0.0090498
        k(   69) = (   0.0000000   0.3000000   0.0000000), wk =   0.0090498
        k(   70) = (   0.0000000   0.2750000   0.0000000), wk =   0.0090498
        k(   71) = (   0.0000000   0.2500000   0.0000000), wk =   0.0090498
        k(   72) = (   0.0000000   0.2250000   0.0000000), wk =   0.0090498
        k(   73) = (   0.0000000   0.2000000   0.0000000), wk =   0.0090498
        k(   74) = (   0.0000000   0.1750000   0.0000000), wk =   0.0090498
        k(   75) = (   0.0000000   0.1500000   0.0000000), wk =   0.0090498
        k(   76) = (   0.0000000   0.1250000   0.0000000), wk =   0.0090498
        k(   77) = (   0.0000000   0.1000000   0.0000000), wk =   0.0090498
        k(   78) = (   0.0000000   0.0750000   0.0000000), wk =   0.0090498
        k(   79) = (   0.0000000   0.0500000   0.0000000), wk =   0.0090498
        k(   80) = (   0.0000000   0.0250000   0.0000000), wk =   0.0090498
        k(   81) = (   0.0000000   0.0000000   0.0000000), wk =   0.0090498
        k(   82) = (   0.0250000   0.0000000  -0.0250000), wk =   0.0090498
        k(   83) = (   0.0500000   0.0000000  -0.0500000), wk =   0.0090498
        k(   84) = (   0.0750000   0.0000000  -0.0750000), wk =   0.0090498
        k(   85) = (   0.1000000   0.0000000  -0.1000000), wk =   0.0090498
        k(   86) = (   0.1250000   0.0000000  -0.1250000), wk =   0.0090498
        k(   87) = (   0.1500000   0.0000000  -0.1500000), wk =   0.0090498
        k(   88) = (   0.1750000   0.0000000  -0.1750000), wk =   0.0090498
        k(   89) = (   0.2000000   0.0000000  -0.2000000), wk =   0.0090498
        k(   90) = (   0.2250000   0.0000000  -0.2250000), wk =   0.0090498
        k(   91) = (   0.2500000   0.0000000  -0.2500000), wk =   0.0090498
        k(   92) = (   0.2750000   0.0000000  -0.2750000), wk =   0.0090498
        k(   93) = (   0.3000000   0.0000000  -0.3000000), wk =   0.0090498
        k(   94) = (   0.3250000   0.0000000  -0.3250000), wk =   0.0090498
        k(   95) = (   0.3500000   0.0000000  -0.3500000), wk =   0.0090498
        k(   96) = (   0.3750000   0.0000000  -0.3750000), wk =   0.0090498
        k(   97) = (   0.4000000   0.0000000  -0.4000000), wk =   0.0090498
        k(   98) = (   0.4250000   0.0000000  -0.4250000), wk =   0.0090498
        k(   99) = (   0.4500000   0.0000000  -0.4500000), wk =   0.0090498
        k(  100) = (   0.4750000   0.0000000  -0.4750000), wk =   0.0090498
        k(  101) = (   0.5000000   0.0000000  -0.5000000), wk =   0.0090498
        k(  102) = (   0.5000000   0.0250000  -0.5000000), wk =   0.0090498
        k(  103) = (   0.5000000   0.0500000  -0.5000000), wk =   0.0090498
        k(  104) = (   0.5000000   0.0750000  -0.5000000), wk =   0.0090498
        k(  105) = (   0.5000000   0.1000000  -0.5000000), wk =   0.0090498
        k(  106) = (   0.5000000   0.1250000  -0.5000000), wk =   0.0090498
        k(  107) = (   0.5000000   0.1500000  -0.5000000), wk =   0.0090498
        k(  108) = (   0.5000000   0.1750000  -0.5000000), wk =   0.0090498
        k(  109) = (   0.5000000   0.2000000  -0.5000000), wk =   0.0090498
        k(  110) = (   0.5000000   0.2250000  -0.5000000), wk =   0.0090498
        k(  111) = (   0.5000000   0.2500000  -0.5000000), wk =   0.0090498
        k(  112) = (   0.5000000   0.2750000  -0.5000000), wk =   0.0090498
        k(  113) = (   0.5000000   0.3000000  -0.5000000), wk =   0.0090498
        k(  114) = (   0.5000000   0.3250000  -0.5000000), wk =   0.0090498
        k(  115) = (   0.5000000   0.3500000  -0.5000000), wk =   0.0090498
        k(  116) = (   0.5000000   0.3750000  -0.5000000), wk =   0.0090498
        k(  117) = (   0.5000000   0.4000000  -0.5000000), wk =   0.0090498
        k(  118) = (   0.5000000   0.4250000  -0.5000000), wk =   0.0090498
        k(  119) = (   0.5000000   0.4500000  -0.5000000), wk =   0.0090498
        k(  120) = (   0.5000000   0.4750000  -0.5000000), wk =   0.0090498
        k(  121) = (   0.5000000   0.5000000  -0.5000000), wk =   0.0090498
        k(  122) = (   0.4750000   0.5000000  -0.4750000), wk =   0.0090498
        k(  123) = (   0.4500000   0.5000000  -0.4500000), wk =   0.0090498
        k(  124) = (   0.4250000   0.5000000  -0.4250000), wk =   0.0090498
        k(  125) = (   0.4000000   0.5000000  -0.4000000), wk =   0.0090498
        k(  126) = (   0.3750000   0.5000000  -0.3750000), wk =   0.0090498
        k(  127) = (   0.3500000   0.5000000  -0.3500000), wk =   0.0090498
        k(  128) = (   0.3250000   0.5000000  -0.3250000), wk =   0.0090498
        k(  129) = (   0.3000000   0.5000000  -0.3000000), wk =   0.0090498
        k(  130) = (   0.2750000   0.5000000  -0.2750000), wk =   0.0090498
        k(  131) = (   0.2500000   0.5000000  -0.2500000), wk =   0.0090498
        k(  132) = (   0.2250000   0.5000000  -0.2250000), wk =   0.0090498
        k(  133) = (   0.2000000   0.5000000  -0.2000000), wk =   0.0090498
        k(  134) = (   0.1750000   0.5000000  -0.1750000), wk =   0.0090498
        k(  135) = (   0.1500000   0.5000000  -0.1500000), wk =   0.0090498
        k(  136) = (   0.1250000   0.5000000  -0.1250000), wk =   0.0090498
        k(  137) = (   0.1000000   0.5000000  -0.1000000), wk =   0.0090498
        k(  138) = (   0.0750000   0.5000000  -0.0750000), wk =   0.0090498
        k(  139) = (   0.0500000   0.5000000  -0.0500000), wk =   0.0090498
        k(  140) = (   0.0250000   0.5000000  -0.0250000), wk =   0.0090498
        k(  141) = (   0.0000000   0.5000000   0.0000000), wk =   0.0090498
        k(  142) = (   0.0000000   0.4750000   0.0000000), wk =   0.0090498
        k(  143) = (   0.0000000   0.4500000   0.0000000), wk =   0.0090498
        k(  144) = (   0.0000000   0.4250000   0.0000000), wk =   0.0090498
        k(  145) = (   0.0000000   0.4000000   0.0000000), wk =   0.0090498
        k(  146) = (   0.0000000   0.3750000   0.0000000), wk =   0.0090498
        k(  147) = (   0.0000000   0.3500000   0.0000000), wk =   0.0090498
        k(  148) = (   0.0000000   0.3250000   0.0000000), wk =   0.0090498
        k(  149) = (   0.0000000   0.3000000   0.0000000), wk =   0.0090498
        k(  150) = (   0.0000000   0.2750000   0.0000000), wk =   0.0090498
        k(  151) = (   0.0000000   0.2500000   0.0000000), wk =   0.0090498
        k(  152) = (   0.0000000   0.2250000   0.0000000), wk =   0.0090498
        k(  153) = (   0.0000000   0.2000000   0.0000000), wk =   0.0090498
        k(  154) = (   0.0000000   0.1750000   0.0000000), wk =   0.0090498
        k(  155) = (   0.0000000   0.1500000   0.0000000), wk =   0.0090498
        k(  156) = (   0.0000000   0.1250000   0.0000000), wk =   0.0090498
        k(  157) = (   0.0000000   0.1000000   0.0000000), wk =   0.0090498
        k(  158) = (   0.0000000   0.0750000   0.0000000), wk =   0.0090498
        k(  159) = (   0.0000000   0.0500000   0.0000000), wk =   0.0090498
        k(  160) = (   0.0000000   0.0250000   0.0000000), wk =   0.0090498
        k(  161) = (   0.0000000   0.0000000   0.0000000), wk =   0.0090498
        k(  162) = (   0.0250000   0.0000000   0.0000000), wk =   0.0090498
        k(  163) = (   0.0500000   0.0000000   0.0000000), wk =   0.0090498
        k(  164) = (   0.0750000   0.0000000   0.0000000), wk =   0.0090498
        k(  165) = (   0.1000000   0.0000000   0.0000000), wk =   0.0090498
        k(  166) = (   0.1250000   0.0000000   0.0000000), wk =   0.0090498
        k(  167) = (   0.1500000   0.0000000   0.0000000), wk =   0.0090498
        k(  168) = (   0.1750000   0.0000000   0.0000000), wk =   0.0090498
        k(  169) = (   0.2000000   0.0000000   0.0000000), wk =   0.0090498
        k(  170) = (   0.2250000   0.0000000   0.0000000), wk =   0.0090498
        k(  171) = (   0.2500000   0.0000000   0.0000000), wk =   0.0090498
        k(  172) = (   0.2750000   0.0000000   0.0000000), wk =   0.0090498
        k(  173) = (   0.3000000   0.0000000   0.0000000), wk =   0.0090498
        k(  174) = (   0.3250000   0.0000000   0.0000000), wk =   0.0090498
        k(  175) = (   0.3500000   0.0000000   0.0000000), wk =   0.0090498
        k(  176) = (   0.3750000   0.0000000   0.0000000), wk =   0.0090498
        k(  177) = (   0.4000000   0.0000000   0.0000000), wk =   0.0090498
        k(  178) = (   0.4250000   0.0000000   0.0000000), wk =   0.0090498
        k(  179) = (   0.4500000   0.0000000   0.0000000), wk =   0.0090498
        k(  180) = (   0.4750000   0.0000000   0.0000000), wk =   0.0090498
        k(  181) = (   0.5000000   0.0000000   0.0000000), wk =   0.0090498
        k(  182) = (   0.5000000   0.0250000   0.0000000), wk =   0.0090498
        k(  183) = (   0.5000000   0.0500000   0.0000000), wk =   0.0090498
        k(  184) = (   0.5000000   0.0750000   0.0000000), wk =   0.0090498
        k(  185) = (   0.5000000   0.1000000   0.0000000), wk =   0.0090498
        k(  186) = (   0.5000000   0.1250000   0.0000000), wk =   0.0090498
        k(  187) = (   0.5000000   0.1500000   0.0000000), wk =   0.0090498
        k(  188) = (   0.5000000   0.1750000   0.0000000), wk =   0.0090498
        k(  189) = (   0.5000000   0.2000000   0.0000000), wk =   0.0090498
        k(  190) = (   0.5000000   0.2250000   0.0000000), wk =   0.0090498
        k(  191) = (   0.5000000   0.2500000   0.0000000), wk =   0.0090498
        k(  192) = (   0.5000000   0.2750000   0.0000000), wk =   0.0090498
        k(  193) = (   0.5000000   0.3000000   0.0000000), wk =   0.0090498
        k(  194) = (   0.5000000   0.3250000   0.0000000), wk =   0.0090498
        k(  195) = (   0.5000000   0.3500000   0.0000000), wk =   0.0090498
        k(  196) = (   0.5000000   0.3750000   0.0000000), wk =   0.0090498
        k(  197) = (   0.5000000   0.4000000   0.0000000), wk =   0.0090498
        k(  198) = (   0.5000000   0.4250000   0.0000000), wk =   0.0090498
        k(  199) = (   0.5000000   0.4500000   0.0000000), wk =   0.0090498
        k(  200) = (   0.5000000   0.4750000   0.0000000), wk =   0.0090498
        k(  201) = (   0.5000000   0.5000000   0.0000000), wk =   0.0090498
        k(  202) = (   0.4750000   0.5000000   0.0000000), wk =   0.0090498
        k(  203) = (   0.4500000   0.5000000   0.0000000), wk =   0.0090498
        k(  204) = (   0.4250000   0.5000000   0.0000000), wk =   0.0090498
        k(  205) = (   0.4000000   0.5000000   0.0000000), wk =   0.0090498
        k(  206) = (   0.3750000   0.5000000   0.0000000), wk =   0.0090498
        k(  207) = (   0.3500000   0.5000000   0.0000000), wk =   0.0090498
        k(  208) = (   0.3250000   0.5000000   0.0000000), wk =   0.0090498
        k(  209) = (   0.3000000   0.5000000   0.0000000), wk =   0.0090498
        k(  210) = (   0.2750000   0.5000000   0.0000000), wk =   0.0090498
        k(  211) = (   0.2500000   0.5000000   0.0000000), wk =   0.0090498
        k(  212) = (   0.2250000   0.5000000   0.0000000), wk =   0.0090498
        k(  213) = (   0.2000000   0.5000000   0.0000000), wk =   0.0090498
        k(  214) = (   0.1750000   0.5000000   0.0000000), wk =   0.0090498
        k(  215) = (   0.1500000   0.5000000   0.0000000), wk =   0.0090498
        k(  216) = (   0.1250000   0.5000000   0.0000000), wk =   0.0090498
        k(  217) = (   0.1000000   0.5000000   0.0000000), wk =   0.0090498
        k(  218) = (   0.0750000   0.5000000   0.0000000), wk =   0.0090498
        k(  219) = (   0.0500000   0.5000000   0.0000000), wk =   0.0090498
        k(  220) = (   0.0250000   0.5000000   0.0000000), wk =   0.0090498
        k(  221) = (   0.0000000   0.5000000   0.0000000), wk =   0.0090498

     Dense  grid:   328125 G-vectors     FFT dimensions: ( 108,  80,  96)

     Smooth grid:    63089 G-vectors     FFT dimensions: (  60,  48,  60)

     Dynamical RAM for                 wfc:       0.23 MB

     Dynamical RAM for     wfc (w. buffer):       0.23 MB

     Dynamical RAM for           str. fact:       0.28 MB

     Dynamical RAM for           local pot:       0.00 MB

     Dynamical RAM for          nlocal pot:       0.59 MB

     Dynamical RAM for                qrad:       4.65 MB

     Dynamical RAM for          rho,v,vnew:       1.01 MB

     Dynamical RAM for           G-vectors:       0.53 MB

     Dynamical RAM for          h,s,v(r/c):       0.02 MB

     Dynamical RAM for          <psi|beta>:       0.19 MB

     Dynamical RAM for                 psi:       0.47 MB

     Dynamical RAM for                hpsi:       0.47 MB

     Dynamical RAM for                spsi:       0.47 MB

     Dynamical RAM for      wfcinit/wfcrot:       0.60 MB

     Dynamical RAM for           addusdens:      26.99 MB

     Estimated static dynamical RAM per process >       8.70 MB

     Estimated max dynamical RAM per process >      35.69 MB

     Estimated total dynamical RAM >       1.25 GB

     Check: negative core charge=   -0.000003

     The potential is recalculated from file :
     ./work/m1.save/charge-density


     negative rho (up, down):  4.894E-03 0.000E+00
     Starting wfcs are   72 randomized atomic wfcs

     Band Structure Calculation
     Davidson diagonalization with overlap

     Computing kpt #:     1  of   221
     total cpu time spent up to now is        3.3 secs

     Computing kpt #:     2  of   221
     total cpu time spent up to now is        4.0 secs

     Computing kpt #:     3  of   221
     total cpu time spent up to now is        4.5 secs

     Computing kpt #:     4  of   221
     total cpu time spent up to now is        5.2 secs

     Computing kpt #:     5  of   221
     total cpu time spent up to now is        5.9 secs

     Computing kpt #:     6  of   221
     total cpu time spent up to now is        6.7 secs

     Computing kpt #:     7  of   221
     total cpu time spent up to now is        7.3 secs

     Computing kpt #:     8  of   221
     total cpu time spent up to now is        7.9 secs

     Computing kpt #:     9  of   221
     total cpu time spent up to now is        8.6 secs

     Computing kpt #:    10  of   221
     total cpu time spent up to now is        9.1 secs

     Computing kpt #:    11  of   221
     total cpu time spent up to now is        9.7 secs

     Computing kpt #:    12  of   221
     total cpu time spent up to now is       10.3 secs

     Computing kpt #:    13  of   221
     total cpu time spent up to now is       10.8 secs

     Computing kpt #:    14  of   221
     total cpu time spent up to now is       11.4 secs

     Computing kpt #:    15  of   221
     total cpu time spent up to now is       11.9 secs

     Computing kpt #:    16  of   221
     total cpu time spent up to now is       12.4 secs

     Computing kpt #:    17  of   221
     total cpu time spent up to now is       13.0 secs

     Computing kpt #:    18  of   221
     total cpu time spent up to now is       13.5 secs

     Computing kpt #:    19  of   221
     total cpu time spent up to now is       14.1 secs

     Computing kpt #:    20  of   221
     total cpu time spent up to now is       14.6 secs

     Computing kpt #:    21  of   221
     total cpu time spent up to now is       15.1 secs

     Computing kpt #:    22  of   221
     total cpu time spent up to now is       15.6 secs

     Computing kpt #:    23  of   221
     total cpu time spent up to now is       16.2 secs

     Computing kpt #:    24  of   221
     total cpu time spent up to now is       16.7 secs

     Computing kpt #:    25  of   221
     total cpu time spent up to now is       17.3 secs

     Computing kpt #:    26  of   221
     total cpu time spent up to now is       17.8 secs

     Computing kpt #:    27  of   221
     total cpu time spent up to now is       18.3 secs

     Computing kpt #:    28  of   221
     total cpu time spent up to now is       18.9 secs

     Computing kpt #:    29  of   221
     total cpu time spent up to now is       19.4 secs

     Computing kpt #:    30  of   221
     total cpu time spent up to now is       20.0 secs

     Computing kpt #:    31  of   221
     total cpu time spent up to now is       20.5 secs

     Computing kpt #:    32  of   221
     total cpu time spent up to now is       21.1 secs

     Computing kpt #:    33  of   221
     total cpu time spent up to now is       21.7 secs

     Computing kpt #:    34  of   221
     total cpu time spent up to now is       22.3 secs

     Computing kpt #:    35  of   221
     total cpu time spent up to now is       22.9 secs

     Computing kpt #:    36  of   221
     total cpu time spent up to now is       23.5 secs

     Computing kpt #:    37  of   221
     total cpu time spent up to now is       24.1 secs

     Computing kpt #:    38  of   221
     total cpu time spent up to now is       24.7 secs

     Computing kpt #:    39  of   221
     total cpu time spent up to now is       25.4 secs

     Computing kpt #:    40  of   221
     total cpu time spent up to now is       26.0 secs

     Computing kpt #:    41  of   221
     total cpu time spent up to now is       26.7 secs

     Computing kpt #:    42  of   221
     total cpu time spent up to now is       27.3 secs

     Computing kpt #:    43  of   221
     total cpu time spent up to now is       28.0 secs

     Computing kpt #:    44  of   221
     total cpu time spent up to now is       28.7 secs

     Computing kpt #:    45  of   221
     total cpu time spent up to now is       29.3 secs

     Computing kpt #:    46  of   221
     total cpu time spent up to now is       29.9 secs

     Computing kpt #:    47  of   221
     total cpu time spent up to now is       30.5 secs

     Computing kpt #:    48  of   221
     total cpu time spent up to now is       31.1 secs

     Computing kpt #:    49  of   221
     total cpu time spent up to now is       31.7 secs

     Computing kpt #:    50  of   221
     total cpu time spent up to now is       32.2 secs

     Computing kpt #:    51  of   221
     total cpu time spent up to now is       32.8 secs

     Computing kpt #:    52  of   221
     total cpu time spent up to now is       33.3 secs

     Computing kpt #:    53  of   221
     total cpu time spent up to now is       33.8 secs

     Computing kpt #:    54  of   221
     total cpu time spent up to now is       34.4 secs

     Computing kpt #:    55  of   221
     total cpu time spent up to now is       34.9 secs

     Computing kpt #:    56  of   221
     total cpu time spent up to now is       35.4 secs

     Computing kpt #:    57  of   221
     total cpu time spent up to now is       35.9 secs

     Computing kpt #:    58  of   221
     total cpu time spent up to now is       36.4 secs

     Computing kpt #:    59  of   221
     total cpu time spent up to now is       36.9 secs

     Computing kpt #:    60  of   221
     total cpu time spent up to now is       37.3 secs

     Computing kpt #:    61  of   221
     total cpu time spent up to now is       37.8 secs

     Computing kpt #:    62  of   221
     total cpu time spent up to now is       38.3 secs

     Computing kpt #:    63  of   221
     total cpu time spent up to now is       38.8 secs

     Computing kpt #:    64  of   221
     total cpu time spent up to now is       39.3 secs

     Computing kpt #:    65  of   221
     total cpu time spent up to now is       39.8 secs

     Computing kpt #:    66  of   221
     total cpu time spent up to now is       40.4 secs

     Computing kpt #:    67  of   221
     total cpu time spent up to now is       41.0 secs

     Computing kpt #:    68  of   221
     total cpu time spent up to now is       41.5 secs

     Computing kpt #:    69  of   221
     total cpu time spent up to now is       42.0 secs

     Computing kpt #:    70  of   221
     total cpu time spent up to now is       42.5 secs

     Computing kpt #:    71  of   221
     total cpu time spent up to now is       43.1 secs

     Computing kpt #:    72  of   221
     total cpu time spent up to now is       43.6 secs

     Computing kpt #:    73  of   221
     total cpu time spent up to now is       44.2 secs

     Computing kpt #:    74  of   221
     total cpu time spent up to now is       44.8 secs

     Computing kpt #:    75  of   221
     total cpu time spent up to now is       45.4 secs

     Computing kpt #:    76  of   221
     total cpu time spent up to now is       46.0 secs

     Computing kpt #:    77  of   221
     total cpu time spent up to now is       46.6 secs

     Computing kpt #:    78  of   221
     total cpu time spent up to now is       47.3 secs

     Computing kpt #:    79  of   221
     total cpu time spent up to now is       47.9 secs

     Computing kpt #:    80  of   221
     total cpu time spent up to now is       48.5 secs

     Computing kpt #:    81  of   221
     total cpu time spent up to now is       49.1 secs

     Computing kpt #:    82  of   221
     total cpu time spent up to now is       49.7 secs

     Computing kpt #:    83  of   221
     total cpu time spent up to now is       50.5 secs

     Computing kpt #:    84  of   221
     total cpu time spent up to now is       51.2 secs

     Computing kpt #:    85  of   221
     total cpu time spent up to now is       51.9 secs

     Computing kpt #:    86  of   221
     total cpu time spent up to now is       52.6 secs

     Computing kpt #:    87  of   221
     total cpu time spent up to now is       53.3 secs

     Computing kpt #:    88  of   221
     total cpu time spent up to now is       54.1 secs

     Computing kpt #:    89  of   221
     total cpu time spent up to now is       54.7 secs

     Computing kpt #:    90  of   221
     total cpu time spent up to now is       55.3 secs

     Computing kpt #:    91  of   221
     total cpu time spent up to now is       55.9 secs

     Computing kpt #:    92  of   221
     total cpu time spent up to now is       56.5 secs

     Computing kpt #:    93  of   221
     total cpu time spent up to now is       57.1 secs

     Computing kpt #:    94  of   221
     total cpu time spent up to now is       57.7 secs

     Computing kpt #:    95  of   221
     total cpu time spent up to now is       58.2 secs

     Computing kpt #:    96  of   221
     total cpu time spent up to now is       58.7 secs

     Computing kpt #:    97  of   221
     total cpu time spent up to now is       59.2 secs

     Computing kpt #:    98  of   221
     total cpu time spent up to now is       59.7 secs

     Computing kpt #:    99  of   221
     total cpu time spent up to now is       60.2 secs

     Computing kpt #:   100  of   221
     total cpu time spent up to now is       60.7 secs

     Computing kpt #:   101  of   221
     total cpu time spent up to now is       61.1 secs

     Computing kpt #:   102  of   221
     total cpu time spent up to now is       61.6 secs

     Computing kpt #:   103  of   221
     total cpu time spent up to now is       62.0 secs

     Computing kpt #:   104  of   221
     total cpu time spent up to now is       62.5 secs

     Computing kpt #:   105  of   221
     total cpu time spent up to now is       63.0 secs

     Computing kpt #:   106  of   221
     total cpu time spent up to now is       63.5 secs

     Computing kpt #:   107  of   221
     total cpu time spent up to now is       63.9 secs

     Computing kpt #:   108  of   221
     total cpu time spent up to now is       64.5 secs

     Computing kpt #:   109  of   221
     total cpu time spent up to now is       65.0 secs

     Computing kpt #:   110  of   221
     total cpu time spent up to now is       65.6 secs

     Computing kpt #:   111  of   221
     total cpu time spent up to now is       66.1 secs

     Computing kpt #:   112  of   221
     total cpu time spent up to now is       66.6 secs

     Computing kpt #:   113  of   221
     total cpu time spent up to now is       67.2 secs

     Computing kpt #:   114  of   221
     total cpu time spent up to now is       67.8 secs

     Computing kpt #:   115  of   221
     total cpu time spent up to now is       68.3 secs

     Computing kpt #:   116  of   221
     total cpu time spent up to now is       68.9 secs

     Computing kpt #:   117  of   221
     total cpu time spent up to now is       69.5 secs

     Computing kpt #:   118  of   221
     total cpu time spent up to now is       70.1 secs

     Computing kpt #:   119  of   221
     total cpu time spent up to now is       70.7 secs

     Computing kpt #:   120  of   221
     total cpu time spent up to now is       71.4 secs

     Computing kpt #:   121  of   221
     total cpu time spent up to now is       72.0 secs

     Computing kpt #:   122  of   221
     total cpu time spent up to now is       72.7 secs

     Computing kpt #:   123  of   221
     total cpu time spent up to now is       73.3 secs

     Computing kpt #:   124  of   221
     total cpu time spent up to now is       74.0 secs

     Computing kpt #:   125  of   221
     total cpu time spent up to now is       74.6 secs

     Computing kpt #:   126  of   221
     total cpu time spent up to now is       75.2 secs

     Computing kpt #:   127  of   221
     total cpu time spent up to now is       75.8 secs

     Computing kpt #:   128  of   221
     total cpu time spent up to now is       76.4 secs

     Computing kpt #:   129  of   221
     total cpu time spent up to now is       76.9 secs

     Computing kpt #:   130  of   221
     total cpu time spent up to now is       77.5 secs

     Computing kpt #:   131  of   221
     total cpu time spent up to now is       78.1 secs

     Computing kpt #:   132  of   221
     total cpu time spent up to now is       78.6 secs

     Computing kpt #:   133  of   221
     total cpu time spent up to now is       79.2 secs

     Computing kpt #:   134  of   221
     total cpu time spent up to now is       79.7 secs

     Computing kpt #:   135  of   221
     total cpu time spent up to now is       80.3 secs

     Computing kpt #:   136  of   221
     total cpu time spent up to now is       80.9 secs

     Computing kpt #:   137  of   221
     total cpu time spent up to now is       81.4 secs

     Computing kpt #:   138  of   221
     total cpu time spent up to now is       81.9 secs

     Computing kpt #:   139  of   221
     total cpu time spent up to now is       82.4 secs

     Computing kpt #:   140  of   221
     total cpu time spent up to now is       82.8 secs

     Computing kpt #:   141  of   221
     total cpu time spent up to now is       83.3 secs

     Computing kpt #:   142  of   221
     total cpu time spent up to now is       83.8 secs

     Computing kpt #:   143  of   221
     total cpu time spent up to now is       84.3 secs

     Computing kpt #:   144  of   221
     total cpu time spent up to now is       84.8 secs

     Computing kpt #:   145  of   221
     total cpu time spent up to now is       85.3 secs

     Computing kpt #:   146  of   221
     total cpu time spent up to now is       85.9 secs

     Computing kpt #:   147  of   221
     total cpu time spent up to now is       86.4 secs

     Computing kpt #:   148  of   221
     total cpu time spent up to now is       87.0 secs

     Computing kpt #:   149  of   221
     total cpu time spent up to now is       87.6 secs

     Computing kpt #:   150  of   221
     total cpu time spent up to now is       88.1 secs

     Computing kpt #:   151  of   221
     total cpu time spent up to now is       88.6 secs

     Computing kpt #:   152  of   221
     total cpu time spent up to now is       89.2 secs

     Computing kpt #:   153  of   221
     total cpu time spent up to now is       89.8 secs

     Computing kpt #:   154  of   221
     total cpu time spent up to now is       90.4 secs

     Computing kpt #:   155  of   221
     total cpu time spent up to now is       91.0 secs

     Computing kpt #:   156  of   221
     total cpu time spent up to now is       91.8 secs

     Computing kpt #:   157  of   221
     total cpu time spent up to now is       92.5 secs

     Computing kpt #:   158  of   221
     total cpu time spent up to now is       93.2 secs

     Computing kpt #:   159  of   221
     total cpu time spent up to now is       93.8 secs

     Computing kpt #:   160  of   221
     total cpu time spent up to now is       94.4 secs

     Computing kpt #:   161  of   221
     total cpu time spent up to now is       95.0 secs

     Computing kpt #:   162  of   221
     total cpu time spent up to now is       95.6 secs

     Computing kpt #:   163  of   221
     total cpu time spent up to now is       96.3 secs

     Computing kpt #:   164  of   221
     total cpu time spent up to now is       97.0 secs

     Computing kpt #:   165  of   221
     total cpu time spent up to now is       97.7 secs

     Computing kpt #:   166  of   221
     total cpu time spent up to now is       98.4 secs

     Computing kpt #:   167  of   221
     total cpu time spent up to now is       99.2 secs

     Computing kpt #:   168  of   221
     total cpu time spent up to now is      100.0 secs

     Computing kpt #:   169  of   221
     total cpu time spent up to now is      100.7 secs

     Computing kpt #:   170  of   221
     total cpu time spent up to now is      101.3 secs

     Computing kpt #:   171  of   221
     total cpu time spent up to now is      101.8 secs

     Computing kpt #:   172  of   221
     total cpu time spent up to now is      102.4 secs

     Computing kpt #:   173  of   221
     total cpu time spent up to now is      102.9 secs

     Computing kpt #:   174  of   221
     total cpu time spent up to now is      103.6 secs

     Computing kpt #:   175  of   221
     total cpu time spent up to now is      104.0 secs

     Computing kpt #:   176  of   221
     total cpu time spent up to now is      104.5 secs

     Computing kpt #:   177  of   221
     total cpu time spent up to now is      105.0 secs

     Computing kpt #:   178  of   221
     total cpu time spent up to now is      105.5 secs

     Computing kpt #:   179  of   221
     total cpu time spent up to now is      105.9 secs

     Computing kpt #:   180  of   221
     total cpu time spent up to now is      106.4 secs

     Computing kpt #:   181  of   221
     total cpu time spent up to now is      106.9 secs

     Computing kpt #:   182  of   221
     total cpu time spent up to now is      107.3 secs

     Computing kpt #:   183  of   221
     total cpu time spent up to now is      107.8 secs

     Computing kpt #:   184  of   221
     total cpu time spent up to now is      108.3 secs

     Computing kpt #:   185  of   221
     total cpu time spent up to now is      108.7 secs

     Computing kpt #:   186  of   221
     total cpu time spent up to now is      109.2 secs

     Computing kpt #:   187  of   221
     total cpu time spent up to now is      109.7 secs

     Computing kpt #:   188  of   221
     total cpu time spent up to now is      110.1 secs

     Computing kpt #:   189  of   221
     total cpu time spent up to now is      110.6 secs

     Computing kpt #:   190  of   221
     total cpu time spent up to now is      111.1 secs

     Computing kpt #:   191  of   221
     total cpu time spent up to now is      111.6 secs

     Computing kpt #:   192  of   221
     total cpu time spent up to now is      112.1 secs

     Computing kpt #:   193  of   221
     total cpu time spent up to now is      112.6 secs

     Computing kpt #:   194  of   221
     total cpu time spent up to now is      113.2 secs

     Computing kpt #:   195  of   221
     total cpu time spent up to now is      113.8 secs

     Computing kpt #:   196  of   221
     total cpu time spent up to now is      114.4 secs

     Computing kpt #:   197  of   221
     total cpu time spent up to now is      115.0 secs

     Computing kpt #:   198  of   221
     total cpu time spent up to now is      115.6 secs

     Computing kpt #:   199  of   221
     total cpu time spent up to now is      116.2 secs

     Computing kpt #:   200  of   221
     total cpu time spent up to now is      116.9 secs

     Computing kpt #:   201  of   221
     total cpu time spent up to now is      117.5 secs

     Computing kpt #:   202  of   221
     total cpu time spent up to now is      118.2 secs

     Computing kpt #:   203  of   221
     total cpu time spent up to now is      118.8 secs

     Computing kpt #:   204  of   221
     total cpu time spent up to now is      119.4 secs

     Computing kpt #:   205  of   221
     total cpu time spent up to now is      120.0 secs

     Computing kpt #:   206  of   221
     total cpu time spent up to now is      120.6 secs

     Computing kpt #:   207  of   221
     total cpu time spent up to now is      121.2 secs

     Computing kpt #:   208  of   221
     total cpu time spent up to now is      121.8 secs

     Computing kpt #:   209  of   221
     total cpu time spent up to now is      122.3 secs

     Computing kpt #:   210  of   221
     total cpu time spent up to now is      122.9 secs

     Computing kpt #:   211  of   221
     total cpu time spent up to now is      123.5 secs

     Computing kpt #:   212  of   221
     total cpu time spent up to now is      124.0 secs

     Computing kpt #:   213  of   221
     total cpu time spent up to now is      124.6 secs

     Computing kpt #:   214  of   221
     total cpu time spent up to now is      125.1 secs

     Computing kpt #:   215  of   221
     total cpu time spent up to now is      125.7 secs

     Computing kpt #:   216  of   221
     total cpu time spent up to now is      126.2 secs

     Computing kpt #:   217  of   221
     total cpu time spent up to now is      126.7 secs

     Computing kpt #:   218  of   221
     total cpu time spent up to now is      127.2 secs

     Computing kpt #:   219  of   221
     total cpu time spent up to now is      127.7 secs

     Computing kpt #:   220  of   221
     total cpu time spent up to now is      128.1 secs

     Computing kpt #:   221  of   221
     total cpu time spent up to now is      128.7 secs

     ethr =  1.00E-11,  avg # of iterations = 27.8

     total cpu time spent up to now is      128.7 secs

     End of band structure calculation

          k = 0.0000 0.0000 0.0000 (  7919 PWs)   bands (ev):

   -54.4798 -54.4700 -54.4284 -54.4279 -28.6017 -28.5991 -28.5980 -28.5685
   -28.4958 -28.4617 -28.1333 -28.1288 -28.0919 -28.0750 -28.0338 -28.0327
    -8.9993  -7.7311  -7.7296  -7.4934  -7.1890  -7.1425  -7.1181  -7.1091
     3.4600   4.0544   4.1123   4.1617   4.1745   4.8655   4.9101   5.7284
     5.7600   5.9609   6.0592   6.7056   6.7057   6.7482   6.9396   7.2103
     7.3336   7.3631   7.9857   8.3162   8.3812   8.5125   8.7815   9.5945
    10.6345  10.6486  11.1203  11.1998  11.4429  11.4597  11.7496  12.4073
    12.5800  12.6792  12.8273  13.2670  13.4781  13.7799  13.8374  14.9410
    15.0264  15.8956  16.0626  16.2336  17.8866  21.6715

          k = 0.0000 0.0317 0.0000 (  7918 PWs)   bands (ev):

   -54.4798 -54.4700 -54.4284 -54.4279 -28.6016 -28.5990 -28.5980 -28.5684
   -28.4958 -28.4618 -28.1334 -28.1288 -28.0919 -28.0751 -28.0338 -28.0327
    -8.9970  -7.7305  -7.7289  -7.4935  -7.1906  -7.1435  -7.1185  -7.1110
     3.4645   4.0525   4.1154   4.1700   4.1788   4.8650   4.9095   5.7278
     5.7602   5.9624   6.0586   6.6952   6.7029   6.7492   6.9358   7.2103
     7.3385   7.3666   7.9785   8.2959   8.3774   8.5224   8.7728   9.5913
    10.6360  10.6510  11.1279  11.2012  11.4463  11.4680  11.7525  12.4080
    12.5801  12.6782  12.8264  13.2693  13.4762  13.7837  13.8394  14.9384
    15.0246  15.8908  16.0574  16.2307  17.8946  21.6699

          k = 0.0000 0.0635 0.0000 (  7916 PWs)   bands (ev):

   -54.4798 -54.4701 -54.4284 -54.4280 -28.6016 -28.5988 -28.5980 -28.5683
   -28.4959 -28.4621 -28.1334 -28.1289 -28.0919 -28.0752 -28.0338 -28.0327
    -8.9899  -7.7287  -7.7269  -7.4941  -7.1956  -7.1464  -7.1197  -7.1164
     3.4780   4.0488   4.1248   4.1918   4.1925   4.8636   4.9078   5.7260
     5.7606   5.9665   6.0569   6.6685   6.6949   6.7478   6.9248   7.2101
     7.3524   7.3768   7.9578   8.2456   8.3656   8.5422   8.7474   9.5819
    10.6413  10.6582  11.1500  11.2061  11.4564  11.4919  11.7608  12.4102
    12.5803  12.6754  12.8240  13.2759  13.4708  13.7949  13.8454  14.9309
    15.0191  15.8764  16.0417  16.2220  17.9183  21.6651

          k = 0.0000 0.0952 0.0000 (  7921 PWs)   bands (ev):

   -54.4797 -54.4701 -54.4284 -54.4280 -28.6015 -28.5984 -28.5979 -28.5682
   -28.4960 -28.4625 -28.1334 -28.1291 -28.0919 -28.0754 -28.0337 -28.0327
    -8.9783  -7.7257  -7.7236  -7.4951  -7.2042  -7.1512  -7.1248  -7.1218
     3.5001   4.0467   4.1407   4.2131   4.2258   4.8614   4.9052   5.7232
     5.7614   5.9732   6.0542   6.6303   6.6816   6.7402   6.9078   7.2099
     7.3736   7.3923   7.9251   8.1792   8.3436   8.5594   8.7075   9.5663
    10.6518  10.6700  11.1839  11.2161  11.4732  11.5287  11.7743  12.4138
    12.5806  12.6707  12.8199  13.2856  13.4632  13.8135  13.8555  14.9185
    15.0100  15.8528  16.0159  16.2074  17.9577  21.6566

          k = 0.0000 0.1269 0.0000 (  7931 PWs)   bands (ev):

   -54.4796 -54.4702 -54.4284 -54.4280 -28.6014 -28.5980 -28.5976 -28.5680
   -28.4961 -28.4631 -28.1334 -28.1293 -28.0918 -28.0756 -28.0337 -28.0327
    -8.9621  -7.7216  -7.7190  -7.4970  -7.2167  -7.1577  -7.1353  -7.1247
     3.5306   4.0483   4.1630   4.2426   4.2674   4.8585   4.9020   5.7195
     5.7626   5.9820   6.0506   6.5827   6.6633   6.7261   6.8859   7.2099
     7.4000   7.4108   7.8832   8.1044   8.3087   8.5685   8.6565   9.5446
    10.6691  10.6863  11.2264  11.2325  11.4966  11.5755  11.7924  12.4189
    12.5811  12.6643  12.8143  13.2956  13.4567  13.8394  13.8695  14.9016
    14.9975  15.8201  15.9804  16.1864  18.0124  21.6435

          k = 0.0000 0.1586 0.0000 (  7924 PWs)   bands (ev):

   -54.4795 -54.4704 -54.4284 -54.4280 -28.6013 -28.5978 -28.5969 -28.5677
   -28.4962 -28.4639 -28.1335 -28.1295 -28.0917 -28.0759 -28.0337 -28.0327
    -8.9413  -7.7165  -7.7131  -7.5002  -7.2333  -7.1658  -7.1469  -7.1285
     3.5689   4.0544   4.1916   4.2800   4.3161   4.8551   4.8987   5.7149
     5.7641   5.9923   6.0464   6.5265   6.6405   6.7064   6.8598   7.2103
     7.4290   7.4290   7.8362   8.0258   8.2575   8.5687   8.5988   9.5171
    10.6940  10.7067  11.2561  11.2745  11.5265  11.6293  11.8143  12.4255
    12.5815  12.6562  12.8073  13.3004  13.4566  13.8722  13.8876  14.8804
    14.9816  15.7789  15.9358  16.1590  18.0819  21.6248

          k = 0.0000 0.1904 0.0000 (  7920 PWs)   bands (ev):

   -54.4793 -54.4705 -54.4284 -54.4280 -28.6011 -28.5977 -28.5960 -28.5675
   -28.4963 -28.4648 -28.1336 -28.1298 -28.0916 -28.0763 -28.0336 -28.0327
    -8.9161  -7.7106  -7.7060  -7.5053  -7.2535  -7.1755  -7.1590  -7.1331
     3.6143   4.0654   4.2262   4.3249   4.3707   4.8514   4.8962   5.7098
     5.7660   6.0035   6.0417   6.4628   6.6139   6.6821   6.8297   7.2113
     7.4416   7.4578   7.7897   7.9472   8.1874   8.5386   8.5610   9.4840
    10.7262  10.7309  11.2869  11.3254  11.5626  11.6877  11.8392  12.4338
    12.5818  12.6467  12.7990  13.2938  13.4695  13.9096  13.9117  14.8556
    14.9626  15.7298  15.8829  16.1250  18.1654  21.5993

          k = 0.0000 0.2221 0.0000 (  7910 PWs)   bands (ev):

   -54.4791 -54.4707 -54.4284 -54.4280 -28.6009 -28.5976 -28.5949 -28.5672
   -28.4964 -28.4659 -28.1336 -28.1301 -28.0915 -28.0768 -28.0336 -28.0327
    -8.8866  -7.7043  -7.6977  -7.5133  -7.2761  -7.1866  -7.1712  -7.1386
     3.6661   4.0812   4.2663   4.3772   4.4303   4.8482   4.8954   5.7041
     5.7684   6.0148   6.0365   6.3925   6.5843   6.6543   6.7955   7.2134
     7.4404   7.4822   7.7524   7.8733   8.0976   8.4788   8.5479   9.4457
    10.7583  10.7646  11.3246  11.3773  11.6044  11.7486  11.8661  12.4438
    12.5812  12.6364  12.7895  13.2743  13.4974  13.9355  13.9577  14.8277
    14.9408  15.6733  15.8225  16.0841  18.2622  21.5658

          k = 0.0000 0.2538 0.0000 (  7899 PWs)   bands (ev):

   -54.4789 -54.4709 -54.4284 -54.4280 -28.6007 -28.5974 -28.5937 -28.5670
   -28.4964 -28.4671 -28.1337 -28.1305 -28.0913 -28.0773 -28.0335 -28.0327
    -8.8529  -7.6980  -7.6884  -7.5253  -7.2989  -7.1990  -7.1833  -7.1449
     3.7235   4.1016   4.3108   4.4363   4.4935   4.8465   4.8978   5.6981
     5.7711   6.0249   6.0308   6.3168   6.5527   6.6238   6.7572   7.2168
     7.4170   7.4949   7.7331   7.8116   7.9898   8.4201   8.5323   9.4027
    10.7885  10.8073  11.3685  11.4290  11.6512  11.8104  11.8938  12.4557
    12.5786  12.6263  12.7792  13.2445  13.5376  13.9652  14.0098  14.7975
    14.9165  15.6101  15.7555  16.0364  18.3712  21.5230

          k = 0.0000 0.2855 0.0000 (  7907 PWs)   bands (ev):

   -54.4786 -54.4712 -54.4284 -54.4280 -28.6004 -28.5973 -28.5923 -28.5668
   -28.4964 -28.4685 -28.1338 -28.1309 -28.0911 -28.0778 -28.0335 -28.0327
    -8.8151  -7.6931  -7.6781  -7.5420  -7.3200  -7.2126  -7.1953  -7.1518
     3.7855   4.1261   4.3583   4.5014   4.5577   4.8484   4.9058   5.6916
     5.7742   6.0237   6.0330   6.2376   6.5203   6.5913   6.7145   7.2216
     7.3704   7.4854   7.7327   7.7732   7.8680   8.3619   8.5170   9.3552
    10.8207  10.8523  11.4179  11.4799  11.7020  11.8714  11.9213  12.4695
    12.5719  12.6185  12.7681  13.2078  13.5871  13.9985  14.0677  14.7658
    14.8902  15.5409  15.6829  15.9820  18.4914  21.4700

          k = 0.0000 0.3173 0.0000 (  7890 PWs)   bands (ev):

   -54.4784 -54.4714 -54.4284 -54.4280 -28.6001 -28.5972 -28.5909 -28.5668
   -28.4963 -28.4699 -28.1339 -28.1313 -28.0908 -28.0784 -28.0334 -28.0327
    -8.7734  -7.6920  -7.6668  -7.5622  -7.3374  -7.2273  -7.2070  -7.1594
     3.8512   4.1543   4.4065   4.5712   4.6185   4.8582   4.9224   5.6846
     5.7774   6.0131   6.0378   6.1582   6.4884   6.5571   6.6674   7.2272
     7.3077   7.4489   7.7189   7.7614   7.7643   8.3037   8.5047   9.3041
    10.8542  10.8975  11.4720  11.5299  11.7555  11.9297  11.9482  12.4851
    12.5591  12.6146  12.7566  13.1664  13.6436  14.0351  14.1311  14.7338
    14.8625  15.4667  15.6057  15.9212  18.6214  21.4060

          k = 0.0000 0.3490 0.0000 (  7880 PWs)   bands (ev):

   -54.4781 -54.4717 -54.4284 -54.4281 -28.5998 -28.5971 -28.5893 -28.5668
   -28.4960 -28.4715 -28.1340 -28.1317 -28.0905 -28.0791 -28.0334 -28.0327
    -8.7281  -7.7000  -7.6548  -7.5811  -7.3505  -7.2427  -7.2182  -7.1674
     3.9197   4.1855   4.4527   4.6438   4.6675   4.8837   4.9521   5.6769
     5.7805   5.9899   6.0384   6.0888   6.4583   6.5214   6.6162   7.2306
     7.2367   7.3968   7.5853   7.7722   7.7772   8.2452   8.4972   9.2496
    10.8881  10.9410  11.5300  11.5789  11.8106  11.9684  11.9892  12.5025
    12.5403  12.6143  12.7450  13.1219  13.7057  14.0746  14.1994  14.7026
    14.8343  15.3881  15.5249  15.8542  18.7601  21.3303

          k = 0.0000 0.3807 0.0000 (  7880 PWs)   bands (ev):

   -54.4778 -54.4720 -54.4284 -54.4281 -28.5996 -28.5970 -28.5877 -28.5670
   -28.4957 -28.4731 -28.1341 -28.1321 -28.0901 -28.0797 -28.0333 -28.0327
    -8.6792  -7.7236  -7.6422  -7.5915  -7.3600  -7.2589  -7.2286  -7.1759
     3.9898   4.2189   4.4936   4.6974   4.7169   4.9317   4.9993   5.6682
     5.7833   5.9350   6.0343   6.0497   6.4307   6.4843   6.5614   7.1632
     7.2208   7.3523   7.4375   7.7925   7.8011   8.1873   8.4960   9.1926
    10.9217  10.9812  11.5911  11.6271  11.8658  11.9891  12.0408  12.5167
    12.5212  12.6159  12.7339  13.0757  13.7722  14.1162  14.2718  14.6736
    14.8069  15.3062  15.4415  15.7815  18.9062  21.2430

          k = 0.0000 0.4124 0.0000 (  7882 PWs)   bands (ev):

   -54.4775 -54.4723 -54.4283 -54.4281 -28.5993 -28.5970 -28.5860 -28.5673
   -28.4952 -28.4748 -28.1342 -28.1324 -28.0897 -28.0804 -28.0332 -28.0327
    -8.6271  -7.7631  -7.6291  -7.5920  -7.3667  -7.2755  -7.2378  -7.1847
     4.0605   4.2534   4.5267   4.7099   4.7893   4.9995   5.0667   5.6585
     5.7853   5.8563   6.0258   6.0340   6.4048   6.4456   6.5050   7.0908
     7.1816   7.2870   7.3394   7.8100   7.8293   8.1314   8.5017   9.1337
    10.9543  11.0168  11.6546  11.6743  11.9201  12.0051  12.0882  12.4885
    12.5409  12.6187  12.7237  13.0289  13.8419  14.1589  14.3471  14.6488
    14.7819  15.2218  15.3565  15.7034  19.0584  21.1440

          k = 0.0000 0.4442 0.0000 (  7874 PWs)   bands (ev):

   -54.4771 -54.4727 -54.4283 -54.4281 -28.5989 -28.5969 -28.5843 -28.5677
   -28.4945 -28.4766 -28.1343 -28.1328 -28.0893 -28.0812 -28.0332 -28.0327
    -8.5719  -7.8135  -7.6159  -7.5864  -7.3717  -7.2923  -7.2452  -7.1937
     4.1304   4.2880   4.5511   4.7117   4.8615   5.0792   5.1529   5.6479
     5.7703   5.7875   6.0139   6.0257   6.3748   6.4047   6.4532   7.0195
     7.1230   7.1399   7.3533   7.8199   7.8584   8.0806   8.5147   9.0735
    10.9851  11.0469  11.7193  11.7202  11.9723  12.0166  12.1300  12.4560
    12.5606  12.6220  12.7152  12.9826  13.9137  14.2009  14.4231  14.6303
    14.7626  15.1360  15.2708  15.6207  19.2155  21.0340

          k = 0.0000 0.4759 0.0000 (  7881 PWs)   bands (ev):

   -54.4768 -54.4730 -54.4283 -54.4281 -28.5987 -28.5969 -28.5825 -28.5684
   -28.4937 -28.4784 -28.1343 -28.1331 -28.0888 -28.0819 -28.0331 -28.0327
    -8.5140  -7.8707  -7.6027  -7.5782  -7.3758  -7.3090  -7.2506  -7.2028
     4.1981   4.3213   4.5682   4.7075   4.9344   5.1638   5.2524   5.6381
     5.6858   5.7872   6.0001   6.0201   6.3277   6.3604   6.4197   6.9349
     7.0171   7.0619   7.3805   7.8168   7.8863   8.0396   8.5347   9.0127
    11.0135  11.0712  11.7644  11.7842  12.0214  12.0239  12.1649  12.4189
    12.5797  12.6254  12.7094  12.9378  13.9861  14.2395  14.4950  14.6213
    14.7546  15.0501  15.1854  15.5338  19.3762  20.9136

          k = 0.0000 0.5076 0.0000 (  7886 PWs)   bands (ev):

   -54.4764 -54.4734 -54.4283 -54.4281 -28.5984 -28.5970 -28.5807 -28.5692
   -28.4927 -28.4802 -28.1344 -28.1334 -28.0882 -28.0827 -28.0331 -28.0327
    -8.4537  -7.9321  -7.5899  -7.5695  -7.3792  -7.3252  -7.2535  -7.2117
     4.2613   4.3518   4.5804   4.6993   5.0083   5.2483   5.3567   5.6031
     5.6338   5.7879   5.9855   6.0164   6.2635   6.3104   6.4056   6.8139
     6.9482   7.0056   7.4156   7.7960   7.9119   8.0126   8.5615   8.9521
    11.0391  11.0893  11.8061  11.8469  12.0284  12.0661  12.1920  12.3773
    12.5971  12.6287  12.7075  12.8954  14.0576  14.2712  14.5537  14.6250
    14.7686  14.9655  15.1010  15.4434  19.5393  20.7837

          k = 0.0000 0.5394 0.0000 (  7895 PWs)   bands (ev):

   -54.4760 -54.4737 -54.4283 -54.4282 -28.5981 -28.5970 -28.5790 -28.5702
   -28.4915 -28.4820 -28.1344 -28.1337 -28.0876 -28.0834 -28.0330 -28.0328
    -8.3913  -7.9963  -7.5781  -7.5617  -7.3816  -7.3405  -7.2539  -7.2204
     4.3171   4.3778   4.5907   4.6876   5.0826   5.3270   5.4472   5.5240
     5.6502   5.7919   5.9705   6.0148   6.1934   6.2505   6.4028   6.6894
     6.9085   6.9577   7.4568   7.7586   7.9343   7.9986   8.5946   8.8924
    11.0613  11.1014  11.8446  11.9022  12.0344  12.1049  12.2104  12.3319
    12.6116  12.6314  12.7109  12.8560  14.1256  14.2922  14.5914  14.6444
    14.8142  14.8843  15.0188  15.3503  19.7036  20.6454

          k = 0.0000 0.5711 0.0000 (  7891 PWs)   bands (ev):

   -54.4757 -54.4741 -54.4283 -54.4282 -28.5978 -28.5971 -28.5773 -28.5714
   -28.4902 -28.4838 -28.1344 -28.1339 -28.0870 -28.0842 -28.0330 -28.0328
    -8.3272  -8.0620  -7.5679  -7.5561  -7.3821  -7.3543  -7.2521  -7.2287
     4.3622   4.3974   4.6020   4.6725   5.1562   5.3910   5.4522   5.4930
     5.7140   5.8036   5.9539   6.0163   6.1266   6.1746   6.4090   6.5840
     6.8849   6.9199   7.5027   7.7107   7.9529   7.9914   8.6335   8.8344
    11.0797  11.1076  11.8792  11.9378  12.0530  12.1356  12.2199  12.2845
    12.6223  12.6333  12.7209  12.8200  14.1868  14.3001  14.6161  14.6792
    14.8096  14.8861  14.9399  15.2555  19.8678  20.4997

          k = 0.0000 0.6028 0.0000 (  7869 PWs)   bands (ev):

   -54.4753 -54.4745 -54.4282 -54.4282 -28.5976 -28.5973 -28.5757 -28.5727
   -28.4888 -28.4856 -28.1343 -28.1341 -28.0863 -28.0849 -28.0329 -28.0328
    -8.2617  -8.1286  -7.5599  -7.5537  -7.3800  -7.3658  -7.2483  -7.2363
     4.3929   4.4083   4.6166   4.6543   5.2286   5.3688   5.4525   5.4978
     5.8086   5.8263   5.9390   6.0227   6.0731   6.0806   6.4254   6.5065
     6.8750   6.8931   7.5524   7.6582   7.9675   7.9857   8.6776   8.7787
    11.0939  11.1082  11.9087  11.9443  12.0916  12.1510  12.2220  12.2420
    12.6291  12.6339  12.7376  12.7880  14.2372  14.2942  14.6433  14.7165
    14.7556  14.8649  14.9725  15.1598  20.0307  20.3479

          k = 0.0000 0.6345 0.0000 (  7862 PWs)   bands (ev):

   -54.4749 -54.4749 -54.4282 -54.4282 -28.5974 -28.5974 -28.5741 -28.5741
   -28.4872 -28.4872 -28.1342 -28.1342 -28.0856 -28.0856 -28.0329 -28.0329
    -8.1954  -8.1954  -7.5550  -7.5550  -7.3746  -7.3746  -7.2429  -7.2429
     4.4078   4.4078   4.6348   4.6348   5.2996   5.2996   5.4826   5.4826
     5.8495   5.8495   5.9796   5.9796   6.0401   6.0401   6.4558   6.4558
     6.8780   6.8780   7.6047   7.6047   7.9782   7.9782   8.7262   8.7262
    11.1035  11.1035  11.9316  11.9316  12.1339  12.1339  12.2226  12.2226
    12.6327  12.6327  12.7603  12.7603  14.2734  14.2734  14.6816  14.6816
    14.7972  14.7972  15.0648  15.0648  20.1912  20.1912

          k = 0.0317 0.6345 0.0000 (  7870 PWs)   bands (ev):

[...]
    -7.9642  -7.9557  -7.7605  -7.7361  -7.3706  -7.3666  -7.2753  -7.2706
     4.2054   4.2762   4.4755   4.4887   4.6737   4.7325   5.1044   5.1335
     5.7716   6.0617   6.1426   6.3233   6.5459   6.7578   6.9337   7.1672
     7.1952   7.2330   7.4917   7.6171   8.2124   8.2842   8.4988   8.6843
    11.1152  11.1316  11.4074  11.4515  11.6220  11.8259  12.2023  12.3449
    12.4560  12.5597  12.7185  12.7616  13.8721  13.8872  14.4535  14.4619
    14.9364  15.1506  15.7324  15.8306  21.0711  21.3119

          k = 0.5704 0.3203 0.5000 (  7900 PWs)   bands (ev):

   -54.4710 -54.4703 -54.4329 -54.4320 -28.5991 -28.5969 -28.5783 -28.5758
   -28.4319 -28.4269 -28.1684 -28.1668 -28.1016 -28.1000 -28.0437 -28.0427
    -7.9328  -7.9237  -7.7885  -7.7693  -7.3715  -7.3691  -7.2747  -7.2714
     4.2190   4.2692   4.4889   4.5066   4.6493   4.6936   5.0941   5.1143
     5.8208   6.0189   6.1681   6.2984   6.6243   6.8308   6.9071   7.1304
     7.2167   7.2496   7.4866   7.5702   8.2162   8.2751   8.5155   8.6485
    11.1236  11.1351  11.4209  11.4579  11.6369  11.7820  12.2218  12.3167
    12.4624  12.5329  12.7223  12.7513  13.8982  13.9115  14.4336  14.4414
    14.9875  15.1382  15.7371  15.8100  21.1974  21.4295

          k = 0.6021 0.3203 0.5000 (  7912 PWs)   bands (ev):

   -54.4708 -54.4705 -54.4327 -54.4322 -28.5986 -28.5975 -28.5776 -28.5764
   -28.4306 -28.4281 -28.1680 -28.1672 -28.1012 -28.1004 -28.0434 -28.0429
    -7.9037  -7.8954  -7.8136  -7.8004  -7.3719  -7.3708  -7.2740  -7.2723
     4.2330   4.2591   4.5045   4.5185   4.6351   4.6611   5.0900   5.1004
     5.8700   5.9695   6.2012   6.2683   6.7026   6.8401   6.9209   7.0636
     7.2527   7.2686   7.4855   7.5285   8.2261   8.2587   8.5432   8.6123
    11.1302  11.1361  11.4344  11.4555  11.6634  11.7389  12.2429  12.2903
    12.4734  12.5091  12.7275  12.7421  13.9175  13.9253  14.4218  14.4265
    15.0356  15.1135  15.7495  15.7883  21.3273  21.5410

          k = 0.6338 0.3203 0.5000 (  7920 PWs)   bands (ev):

   -54.4706 -54.4706 -54.4325 -54.4325 -28.5981 -28.5981 -28.5770 -28.5770
   -28.4294 -28.4294 -28.1676 -28.1676 -28.1008 -28.1008 -28.0432 -28.0432
    -7.8849  -7.8849  -7.8214  -7.8214  -7.3717  -7.3717  -7.2731  -7.2731
     4.2467   4.2467   4.5171   4.5171   4.6393   4.6393   5.0922   5.0922
     5.9195   5.9195   6.2353   6.2353   6.7767   6.7767   6.9922   6.9922
     7.2719   7.2719   7.4983   7.4983   8.2410   8.2410   8.5765   8.5765
    11.1344  11.1344  11.4467  11.4467  11.6985  11.6985  12.2658  12.2658
    12.4891  12.4891  12.7341  12.7341  13.9272  13.9272  14.4195  14.4195
    15.0784  15.0784  15.7673  15.7673  21.4596  21.4596

          k = 0.6338 0.3043 0.4750 (  7908 PWs)   bands (ev):

   -54.4707 -54.4707 -54.4324 -54.4324 -28.5981 -28.5981 -28.5770 -28.5770
   -28.4298 -28.4298 -28.1672 -28.1672 -28.1008 -28.1008 -28.0431 -28.0431
    -7.8949  -7.8949  -7.8113  -7.8113  -7.3718  -7.3718  -7.2730  -7.2730
     4.2482   4.2482   4.5165   4.5165   4.6367   4.6367   5.0944   5.0944
     5.9177   5.9177   6.2373   6.2373   6.7664   6.7664   6.9991   6.9991
     7.2696   7.2696   7.4974   7.4974   8.2448   8.2448   8.5793   8.5793
    11.1347  11.1347  11.4478  11.4478  11.6998  11.6998  12.2644  12.2644
    12.4901  12.4901  12.7335  12.7335  13.9305  13.9305  14.4199  14.4199
    15.0775  15.0775  15.7658  15.7658  21.4324  21.4324

          k = 0.6338 0.2883 0.4500 (  7904 PWs)   bands (ev):

   -54.4708 -54.4708 -54.4323 -54.4323 -28.5980 -28.5980 -28.5770 -28.5770
   -28.4311 -28.4311 -28.1661 -28.1661 -28.1008 -28.1008 -28.0429 -28.0429
    -7.9160  -7.9160  -7.7901  -7.7901  -7.3723  -7.3723  -7.2725  -7.2725
     4.2524   4.2524   4.5145   4.5145   4.6295   4.6295   5.1008   5.1008
     5.9126   5.9126   6.2425   6.2425   6.7404   6.7404   7.0137   7.0137
     7.2633   7.2633   7.4958   7.4958   8.2556   8.2556   8.5874   8.5874
    11.1353  11.1353  11.4512  11.4512  11.7036  11.7036  12.2606  12.2606
    12.4932  12.4932  12.7317  12.7317  13.9403  13.9403  14.4211  14.4211
    15.0746  15.0746  15.7610  15.7610  21.3692  21.3692

          k = 0.6338 0.2723 0.4250 (  7902 PWs)   bands (ev):

   -54.4709 -54.4709 -54.4322 -54.4322 -28.5980 -28.5980 -28.5770 -28.5770
   -28.4331 -28.4331 -28.1644 -28.1644 -28.1008 -28.1008 -28.0426 -28.0426
    -7.9400  -7.9400  -7.7657  -7.7657  -7.3731  -7.3731  -7.2717  -7.2717
     4.2593   4.2593   4.5111   4.5111   4.6188   4.6188   5.1103   5.1103
     5.9051   5.9051   6.2491   6.2491   6.7079   6.7079   7.0250   7.0250
     7.2546   7.2546   7.4965   7.4965   8.2729   8.2729   8.6003   8.6003
    11.1362  11.1362  11.4569  11.4569  11.7099  11.7099  12.2541  12.2541
    12.4983  12.4983  12.7289  12.7289  13.9565  13.9565  14.4232  14.4232
    15.0700  15.0700  15.7531  15.7531  21.2901  21.2901

          k = 0.6338 0.2563 0.4000 (  7898 PWs)   bands (ev):

   -54.4711 -54.4711 -54.4320 -54.4320 -28.5979 -28.5979 -28.5770 -28.5770
   -28.4359 -28.4359 -28.1620 -28.1620 -28.1007 -28.1007 -28.0423 -28.0423
    -7.9646  -7.9646  -7.7405  -7.7405  -7.3743  -7.3743  -7.2707  -7.2707
     4.2685   4.2685   4.5061   4.5061   4.6065   4.6065   5.1216   5.1216
     5.8961   5.8961   6.2545   6.2545   6.6752   6.6752   7.0251   7.0251
     7.2445   7.2445   7.5036   7.5036   8.2956   8.2956   8.6168   8.6168
    11.1369  11.1369  11.4649  11.4649  11.7184  11.7184  12.2451  12.2451
    12.5052  12.5052  12.7251  12.7251  13.9788  13.9788  14.4263  14.4263
    15.0636  15.0636  15.7420  15.7420  21.2032  21.2032

          k = 0.6338 0.2402 0.3750 (  7886 PWs)   bands (ev):

   -54.4713 -54.4713 -54.4318 -54.4318 -28.5978 -28.5978 -28.5770 -28.5770
   -28.4392 -28.4392 -28.1593 -28.1593 -28.1006 -28.1006 -28.0418 -28.0418
    -7.9891  -7.9891  -7.7154  -7.7154  -7.3757  -7.3757  -7.2694  -7.2694
     4.2793   4.2793   4.4998   4.4998   4.5940   4.5940   5.1334   5.1334
     5.8868   5.8868   6.2556   6.2556   6.6462   6.6462   7.0111   7.0111
     7.2335   7.2335   7.5202   7.5202   8.3226   8.3226   8.6359   8.6359
    11.1371  11.1371  11.4751  11.4751  11.7289  11.7289  12.2337  12.2337
    12.5136  12.5136  12.7207  12.7207  14.0070  14.0070  14.4304  14.4304
    15.0558  15.0558  15.7276  15.7276  21.1120  21.1120

          k = 0.6338 0.2242 0.3500 (  7890 PWs)   bands (ev):

   -54.4716 -54.4716 -54.4315 -54.4315 -28.5977 -28.5977 -28.5769 -28.5769
   -28.4430 -28.4430 -28.1562 -28.1562 -28.1003 -28.1003 -28.0412 -28.0412
    -8.0131  -8.0131  -7.6907  -7.6907  -7.3773  -7.3773  -7.2679  -7.2679
     4.2911   4.2911   4.4926   4.4926   4.5825   4.5825   5.1449   5.1449
     5.8779   5.8779   6.2502   6.2502   6.6220   6.6220   6.9848   6.9848
     7.2222   7.2222   7.5465   7.5465   8.3530   8.3530   8.6565   8.6565
    11.1366  11.1366  11.4875  11.4875  11.7412  11.7412  12.2200  12.2200
    12.5232  12.5232  12.7159  12.7159  14.0407  14.0407  14.4358  14.4358
    15.0466  15.0466  15.7099  15.7099  21.0186  21.0186

          k = 0.6338 0.2082 0.3250 (  7886 PWs)   bands (ev):

   -54.4719 -54.4719 -54.4312 -54.4312 -28.5976 -28.5976 -28.5769 -28.5769
   -28.4472 -28.4472 -28.1531 -28.1531 -28.0999 -28.0999 -28.0406 -28.0406
    -8.0362  -8.0362  -7.6666  -7.6666  -7.3793  -7.3793  -7.2663  -7.2663
     4.3029   4.3029   4.4859   4.4859   4.5722   4.5722   5.1555   5.1555
     5.8700   5.8700   6.2372   6.2372   6.6011   6.6011   6.9499   6.9499
     7.2130   7.2130   7.5801   7.5801   8.3858   8.3858   8.6773   8.6773
    11.1351  11.1351  11.5019  11.5019  11.7551  11.7551  12.2043  12.2043
    12.5336  12.5336  12.7111  12.7111  14.0793  14.0793  14.4426  14.4426
    15.0363  15.0363  15.6889  15.6889  20.9245  20.9245

          k = 0.6338 0.1922 0.3000 (  7892 PWs)   bands (ev):

   -54.4722 -54.4722 -54.4309 -54.4309 -28.5975 -28.5975 -28.5768 -28.5768
   -28.4515 -28.4515 -28.1499 -28.1499 -28.0993 -28.0993 -28.0399 -28.0399
    -8.0582  -8.0582  -7.6435  -7.6435  -7.3814  -7.3814  -7.2645  -7.2645
     4.3133   4.3133   4.4813   4.4813   4.5630   4.5630   5.1653   5.1653
     5.8635   5.8635   6.2178   6.2178   6.5796   6.5796   6.9101   6.9101
     7.2097   7.2097   7.6177   7.6177   8.4202   8.4202   8.6973   8.6973
    11.1324  11.1324  11.5180  11.5180  11.7700  11.7700  12.1866  12.1866
    12.5442  12.5442  12.7067  12.7067  14.1223  14.1223  14.4510  14.4510
    15.0252  15.0252  15.6646  15.6646  20.8311  20.8311

          k = 0.6338 0.1762 0.2750 (  7890 PWs)   bands (ev):

   -54.4726 -54.4726 -54.4305 -54.4305 -28.5974 -28.5974 -28.5767 -28.5767
   -28.4560 -28.4560 -28.1469 -28.1469 -28.0985 -28.0985 -28.0392 -28.0392
    -8.0791  -8.0791  -7.6213  -7.6213  -7.3837  -7.3837  -7.2627  -7.2627
     4.3214   4.3214   4.4804   4.4804   4.5544   4.5544   5.1746   5.1746
     5.8585   5.8585   6.1941   6.1941   6.5531   6.5531   6.8682   6.8682
     7.2155   7.2155   7.6565   7.6565   8.4557   8.4557   8.7156   8.7156
    11.1287  11.1287  11.5355  11.5355  11.7856  11.7856  12.1674  12.1674
    12.5543  12.5543  12.7032  12.7032  14.1690  14.1690  14.4612  14.4612
    15.0135  15.0135  15.6371  15.6371  20.7396  20.7396

          k = 0.6338 0.1602 0.2500 (  7888 PWs)   bands (ev):

   -54.4729 -54.4729 -54.4302 -54.4302 -28.5974 -28.5974 -28.5766 -28.5766
   -28.4604 -28.4604 -28.1442 -28.1442 -28.0975 -28.0975 -28.0385 -28.0385
    -8.0986  -8.0986  -7.6004  -7.6004  -7.3862  -7.3862  -7.2608  -7.2608
     4.3266   4.3266   4.4836   4.4836   4.5460   4.5460   5.1841   5.1841
     5.8546   5.8546   6.1685   6.1685   6.5186   6.5186   6.8263   6.8263
     7.2321   7.2321   7.6946   7.6946   8.4913   8.4913   8.7316   8.7316
    11.1241  11.1241  11.5541  11.5541  11.8013  11.8013  12.1470  12.1470
    12.5633  12.5633  12.7010  12.7010  14.2182  14.2182  14.4734  14.4734
    15.0016  15.0016  15.6063  15.6063  20.6511  20.6511

          k = 0.6338 0.1441 0.2250 (  7884 PWs)   bands (ev):

   -54.4732 -54.4732 -54.4299 -54.4299 -28.5974 -28.5974 -28.5765 -28.5765
   -28.4648 -28.4648 -28.1418 -28.1418 -28.0962 -28.0962 -28.0377 -28.0377
    -8.1166  -8.1166  -7.5807  -7.5807  -7.3889  -7.3889  -7.2589  -7.2589
     4.3293   4.3293   4.4906   4.4906   4.5374   4.5374   5.1948   5.1948
     5.8516   5.8516   6.1429   6.1429   6.4758   6.4758   6.7854   6.7854
     7.2591   7.2591   7.7306   7.7306   8.5264   8.5264   8.7450   8.7450
    11.1189  11.1189  11.5734  11.5734  11.8166  11.8166  12.1258  12.1258
    12.5705  12.5705  12.7005  12.7005  14.2689  14.2689  14.4881  14.4881
    14.9900  14.9900  15.5724  15.5724  20.5669  20.5669

          k = 0.6338 0.1281 0.2000 (  7884 PWs)   bands (ev):

   -54.4735 -54.4735 -54.4295 -54.4295 -28.5973 -28.5973 -28.5763 -28.5763
   -28.4689 -28.4689 -28.1398 -28.1398 -28.0947 -28.0947 -28.0370 -28.0370
    -8.1331  -8.1331  -7.5625  -7.5625  -7.3917  -7.3917  -7.2572  -7.2572
     4.3308   4.3308   4.4992   4.4992   4.5288   4.5288   5.2075   5.2075
     5.8486   5.8486   6.1189   6.1189   6.4267   6.4267   6.7459   6.7459
     7.2944   7.2944   7.7638   7.7638   8.5597   8.5597   8.7556   8.7556
    11.1132  11.1132  11.5934  11.5934  11.8305  11.8305  12.1046  12.1046
    12.5756  12.5756  12.7018  12.7018  14.3193  14.3193  14.5057  14.5057
    14.9789  14.9789  15.5357  15.5357  20.4879  20.4879

          k = 0.6338 0.1121 0.1750 (  7892 PWs)   bands (ev):

   -54.4738 -54.4738 -54.4292 -54.4292 -28.5973 -28.5973 -28.5762 -28.5762
   -28.4727 -28.4727 -28.1382 -28.1382 -28.0932 -28.0932 -28.0363 -28.0363
    -8.1478  -8.1478  -7.5457  -7.5457  -7.3947  -7.3947  -7.2555  -7.2555
     4.3321   4.3321   4.5051   4.5051   4.5231   4.5231   5.2231   5.2231
     5.8451   5.8451   6.0973   6.0973   6.3742   6.3742   6.7082   6.7082
     7.3350   7.3350   7.7939   7.7939   8.5900   8.5900   8.7640   8.7640
    11.1075  11.1075  11.6139  11.6139  11.8420  11.8420  12.0841  12.0841
    12.5787  12.5787  12.7048  12.7048  14.3671  14.3671  14.5270  14.5270
    14.9690  14.9690  15.4965  15.4965  20.4153  20.4153

          k = 0.6338 0.0961 0.1500 (  7898 PWs)   bands (ev):

   -54.4741 -54.4741 -54.4290 -54.4290 -28.5974 -28.5974 -28.5760 -28.5760
   -28.4762 -28.4762 -28.1370 -28.1370 -28.0916 -28.0916 -28.0357 -28.0357
    -8.1608  -8.1608  -7.5305  -7.5305  -7.3978  -7.3978  -7.2539  -7.2539
     4.3343   4.3343   4.4999   4.4999   4.5270   4.5270   5.2417   5.2417
     5.8403   5.8403   6.0785   6.0785   6.3219   6.3219   6.6729   6.6729
     7.3778   7.3778   7.8206   7.8206   8.6158   8.6158   8.7711   8.7711
    11.1019  11.1019  11.6348  11.6348  11.8501  11.8501  12.0653  12.0653
    12.5800  12.5800  12.7088  12.7088  14.4096  14.4096  14.5529  14.5529
    14.9610  14.9610  15.4554  15.4554  20.3500  20.3500

          k = 0.6338 0.0801 0.1250 (  7906 PWs)   bands (ev):

   -54.4743 -54.4743 -54.4287 -54.4287 -28.5974 -28.5974 -28.5758 -28.5758
   -28.4792 -28.4792 -28.1360 -28.1360 -28.0900 -28.0900 -28.0351 -28.0351
    -8.1719  -8.1719  -7.5170  -7.5170  -7.4009  -7.4009  -7.2526  -7.2526
     4.3378   4.3378   4.4889   4.4889   4.5347   4.5347   5.2632   5.2632
     5.8336   5.8336   6.0621   6.0621   6.2736   6.2736   6.6406   6.6406
     7.4197   7.4197   7.8440   7.8440   8.6355   8.6355   8.7779   8.7779
    11.0968  11.0968  11.6561  11.6561  11.8533  11.8533  12.0494  12.0494
    12.5801  12.5801  12.7134  12.7134  14.4446  14.4446  14.5834  14.5834
    14.9557  14.9557  15.4132  15.4132  20.2929  20.2929

          k = 0.6338 0.0641 0.1000 (  7898 PWs)   bands (ev):

   -54.4745 -54.4745 -54.4285 -54.4285 -28.5975 -28.5975 -28.5756 -28.5756
   -28.4818 -28.4818 -28.1353 -28.1353 -28.0886 -28.0886 -28.0346 -28.0346
    -8.1811  -8.1811  -7.5054  -7.5054  -7.4040  -7.4040  -7.2514  -7.2514
     4.3428   4.3428   4.4765   4.4765   4.5418   4.5418   5.2865   5.2865
     5.8249   5.8249   6.0472   6.0472   6.2326   6.2326   6.6122   6.6122
     7.4580   7.4580   7.8640   7.8640   8.6485   8.6485   8.7855   8.7855
    11.0924  11.0924  11.6774  11.6774  11.8510  11.8510  12.0374  12.0374
    12.5794  12.5794  12.7180  12.7180  14.4714  14.4714  14.6160  14.6160
    14.9540  14.9540  15.3712  15.3712  20.2450  20.2450

          k = 0.6338 0.0480 0.0750 (  7898 PWs)   bands (ev):

   -54.4747 -54.4747 -54.4284 -54.4284 -28.5975 -28.5975 -28.5754 -28.5754
   -28.4838 -28.4838 -28.1349 -28.1349 -28.0874 -28.0874 -28.0342 -28.0342
    -8.1883  -8.1883  -7.4959  -7.4959  -7.4068  -7.4068  -7.2505  -7.2505
     4.3489   4.3489   4.4640   4.4640   4.5473   4.5473   5.3097   5.3097
     5.8147   5.8147   6.0332   6.0332   6.2016   6.2016   6.5887   6.5887
     7.4903   7.4903   7.8805   7.8805   8.6552   8.6552   8.7935   8.7935
    11.0889  11.0889  11.6985  11.6985  11.8433  11.8433  12.0295  12.0295
    12.5785  12.5785  12.7219  12.7219  14.4909  14.4909  14.6466  14.6466
    14.9565  14.9565  15.3315  15.3315  20.2069  20.2069

          k = 0.6338 0.0320 0.0500 (  7902 PWs)   bands (ev):

   -54.4748 -54.4748 -54.4282 -54.4282 -28.5975 -28.5975 -28.5753 -28.5753
   -28.4853 -28.4853 -28.1346 -28.1346 -28.0866 -28.0866 -28.0339 -28.0339
    -8.1935  -8.1935  -7.4887  -7.4887  -7.4093  -7.4093  -7.2498  -7.2498
     4.3553   4.3553   4.4528   4.4528   4.5513   4.5513   5.3301   5.3301
     5.8045   5.8045   6.0209   6.0209   6.1814   6.1814   6.5709   6.5709
     7.5146   7.5146   7.8928   7.8928   8.6576   8.6576   8.8008   8.8008
    11.0862  11.0862  11.7183  11.7183  11.8317  11.8317  12.0251  12.0251
    12.5777  12.5777  12.7250  12.7250  14.5042  14.5042  14.6710  14.6710
    14.9627  14.9627  15.2973  15.2973  20.1792  20.1792

          k = 0.6338 0.0160 0.0250 (  7906 PWs)   bands (ev):

   -54.4749 -54.4749 -54.4282 -54.4282 -28.5976 -28.5976 -28.5752 -28.5752
   -28.4862 -28.4862 -28.1344 -28.1344 -28.0860 -28.0860 -28.0337 -28.0337
    -8.1966  -8.1966  -7.4841  -7.4841  -7.4109  -7.4109  -7.2494  -7.2494
     4.3606   4.3606   4.4445   4.4445   4.5535   4.5535   5.3443   5.3443
     5.7966   5.7966   6.0122   6.0122   6.1705   6.1705   6.5599   6.5599
     7.5298   7.5298   7.9006   7.9006   8.6579   8.6579   8.8058   8.8058
    11.0846  11.0846  11.7343  11.7343  11.8200  11.8200  12.0230  12.0230
    12.5771  12.5771  12.7269  12.7269  14.5121  14.5121  14.6864  14.6864
    14.9695  14.9695  15.2733  15.2733  20.1624  20.1624

          k = 0.6338 0.0000 0.0000 (  7902 PWs)   bands (ev):

   -54.4749 -54.4749 -54.4281 -54.4281 -28.5976 -28.5976 -28.5752 -28.5752
   -28.4865 -28.4865 -28.1343 -28.1343 -28.0858 -28.0858 -28.0337 -28.0337
    -8.1976  -8.1976  -7.4825  -7.4825  -7.4115  -7.4115  -7.2492  -7.2492
     4.3627   4.3627   4.4413   4.4413   4.5543   4.5543   5.3495   5.3495
     5.7936   5.7936   6.0091   6.0091   6.1671   6.1671   6.5561   6.5561
     7.5349   7.5349   7.9032   7.9032   8.6579   8.6579   8.8076   8.8076
    11.0841  11.0841  11.7412  11.7412  11.8145  11.8145  12.0225  12.0225
    12.5769  12.5769  12.7275  12.7275  14.5147  14.5147  14.6916  14.6916
    14.9726  14.9726  15.2644  15.2644  20.1567  20.1567

     Writing all to output data dir ./work/m1.save/

     init_run     :      2.05s CPU      2.12s WALL (       1 calls)
     electrons    :    123.25s CPU    125.97s WALL (       1 calls)

     Called by init_run:
     wfcinit      :      0.00s CPU      0.03s WALL (       1 calls)
     wfcinit:atom :      0.03s CPU      0.03s WALL (     221 calls)
     wfcinit:wfcr :      5.40s CPU      5.49s WALL (     221 calls)
     potinit      :      0.46s CPU      0.47s WALL (       1 calls)
     hinit0       :      1.40s CPU      1.41s WALL (       1 calls)

     Called by electrons:
     c_bands      :    123.25s CPU    125.96s WALL (       1 calls)
     v_of_rho     :      0.02s CPU      0.03s WALL (       1 calls)
     v_h          :      0.00s CPU      0.00s WALL (       1 calls)
     v_xc         :      0.02s CPU      0.03s WALL (       1 calls)
     newd         :      0.06s CPU      0.07s WALL (       1 calls)

     Called by c_bands:
     init_us_2    :      0.04s CPU      0.05s WALL (     221 calls)
     init_us_2:cp :      0.04s CPU      0.05s WALL (     221 calls)
     cegterg      :    117.18s CPU    118.88s WALL (     415 calls)

     Called by sum_band:

     Called by *egterg:
     cdiaghg      :     42.79s CPU     43.16s WALL (    6355 calls)
     cegterg:over :      8.99s CPU      9.07s WALL (    6134 calls)
     cegterg:upda :      4.43s CPU      4.47s WALL (    6134 calls)
     cegterg:last :     10.80s CPU     10.86s WALL (    3021 calls)
     cdiaghg:chol :      2.81s CPU      2.84s WALL (    6355 calls)
     cdiaghg:inve :      1.72s CPU      1.74s WALL (    6355 calls)
     cdiaghg:para :      3.09s CPU      3.12s WALL (   12710 calls)
     h_psi        :     51.33s CPU     52.55s WALL (    6770 calls)
     s_psi        :      2.50s CPU      2.53s WALL (    6770 calls)
     g_psi        :      0.18s CPU      0.18s WALL (    6134 calls)

     Called by h_psi:
     h_psi:calbec :      5.54s CPU      5.62s WALL (    6770 calls)
     vloc_psi     :     42.90s CPU     44.01s WALL (    6770 calls)
     add_vuspsi   :      2.75s CPU      2.78s WALL (    6770 calls)

     General routines
     calbec       :      5.52s CPU      5.61s WALL (    6770 calls)
     fft          :      0.63s CPU      0.63s WALL (      13 calls)
     ffts         :      0.42s CPU      0.42s WALL (       1 calls)
     fftw         :     40.58s CPU     41.64s WALL (  462024 calls)
     interpolate  :      0.42s CPU      0.42s WALL (       1 calls)
     davcio       :      0.07s CPU      0.17s WALL (     442 calls)

     Parallel routines

     PWSCF        :   2m11.20s CPU   2m17.78s WALL


   This run was terminated on:  11: 6:54  14Sep2023            

=------------------------------------------------------------------------------=
   JOB DONE.
=------------------------------------------------------------------------------=
