
     Program BANDS v.7.0 starts on 14Sep2023 at 11: 6:55 

     This program is part of the open-source Quantum ESPRESSO suite
     for quantum simulation of materials; please cite
         "P. Giannozzi et al., J. Phys.:Condens. Matter 21 395502 (2009);
         "P. Giannozzi et al., J. Phys.:Condens. Matter 29 465901 (2017);
         "P. Giannozzi et al., J. Chem. Phys. 152 154105 (2020);
          URL http://www.quantum-espresso.org", 
     in publications or presentations arising from this work. More details at
     http://www.quantum-espresso.org/quote

     Parallel version (MPI), running on    36 processors

     MPI processes distributed on     1 nodes
     R & G space division:  proc/nbgrp/npool/nimage =      36
     186631 MiB available memory on the printing compute node when the environment starts


     Reading xml data from directory:

     ./work/m1.save/

     IMPORTANT: XC functional enforced from input :
     Exchange-correlation= PBE
                           (   1   4   3   4   0   0   0)
     Any further DFT definition will be discarded
     Please, verify this is what you really want


     Parallelization info
     --------------------
     sticks:   dense  smooth     PW     G-vecs:    dense   smooth      PW
     Min         172      57     16                 9111     1751     261
     Max         173      58     17                 9116     1755     264
     Sum        6223    2065    591               328125    63089    9443

     Using Slab Decomposition


     Check: negative core charge=   -0.000003

     negative rho (up, down):  4.894E-03 0.000E+00
     Reading collected, re-writing distributed wavefunctions
     high-symmetry point:  0.0000 0.0000 0.0000   x coordinate   0.0000
     high-symmetry point:  0.0000 0.6345 0.0000   x coordinate   0.6345
     high-symmetry point:  0.6338 0.6345 0.0000   x coordinate   1.2683
     high-symmetry point:  0.6338 0.0000 0.0000   x coordinate   1.9028
     high-symmetry point:  0.0000 0.0000 0.0000   x coordinate   2.5366
     high-symmetry point:  0.0000-0.3142 0.5000   x coordinate   3.1271
     high-symmetry point:  0.6338-0.3142 0.5000   x coordinate   3.7609
     high-symmetry point:  0.6338 0.0000 0.0000   x coordinate   4.3514
     high-symmetry point:  0.0000 0.0000 0.0000   x coordinate   4.9852
     high-symmetry point:  0.0000 0.3203 0.5000   x coordinate   5.5790
     high-symmetry point:  0.6338 0.3203 0.5000   x coordinate   6.2127
     high-symmetry point:  0.6338 0.0000 0.0000   x coordinate   6.8065

     Plottable bands (eV) written to file bands2.m1.dat.gnu
     Bands written to file bands2.m1.dat

 **************************************************************************

                    xk=(   0.00000,   0.00000,   0.00000  )

     point group C_2h (2/m) 
     there are  4 classes
     the character table:

       E     C2    i     s_h  
A_g    1.00  1.00  1.00  1.00
B_g    1.00 -1.00  1.00 -1.00
A_u    1.00  1.00 -1.00 -1.00
B_u    1.00 -1.00 -1.00  1.00

     the symmetry operations in each class and the name of the first element:

     E        1
                                                                 
     C2       2
                                                                 
     i        3
                                                                 
     s_h      4
                                                                 

     Band symmetry, C_2h (2/m)  point group:

     e(  1 -  1) =    -54.47983  eV     1   --> A_g            
     e(  2 -  2) =    -54.47000  eV     1   --> B_g            
     e(  3 -  3) =    -54.42844  eV     1   --> B_u            
     e(  4 -  4) =    -54.42795  eV     1   --> A_u            
     e(  5 -  5) =    -28.60166  eV     1   --> A_u            
     e(  6 -  6) =    -28.59912  eV     1   --> A_g            
     e(  7 -  7) =    -28.59801  eV     1   --> B_u            
     e(  8 -  8) =    -28.56846  eV     1   --> B_g            
     e(  9 -  9) =    -28.49583  eV     1   --> B_g            
     e( 10 - 10) =    -28.46175  eV     1   --> A_g            
     e( 11 - 11) =    -28.13335  eV     1   --> A_u            
     e( 12 - 12) =    -28.12879  eV     1   --> B_u            
     e( 13 - 13) =    -28.09195  eV     1   --> A_u            
     e( 14 - 14) =    -28.07504  eV     1   --> B_u            
     e( 15 - 15) =    -28.03377  eV     1   --> A_g            
     e( 16 - 16) =    -28.03273  eV     1   --> B_g            
     e( 17 - 17) =     -8.99929  eV     1   --> A_g            
     e( 18 - 18) =     -7.73110  eV     1   --> A_u            
     e( 19 - 19) =     -7.72961  eV     1   --> B_u            
     e( 20 - 20) =     -7.49338  eV     1   --> B_g            
     e( 21 - 21) =     -7.18896  eV     1   --> B_g            
     e( 22 - 22) =     -7.14254  eV     1   --> A_g            
     e( 23 - 23) =     -7.11810  eV     1   --> B_u            
     e( 24 - 24) =     -7.10910  eV     1   --> A_u            
     e( 25 - 25) =      3.46002  eV     1   --> B_g            
     e( 26 - 26) =      4.05444  eV     1   --> A_g            
     e( 27 - 27) =      4.11226  eV     1   --> A_u            
     e( 28 - 28) =      4.16172  eV     1   --> B_u            
     e( 29 - 29) =      4.17451  eV     1   --> B_g            
     e( 30 - 30) =      4.86546  eV     1   --> B_u            
     e( 31 - 31) =      4.91014  eV     1   --> A_u            
     e( 32 - 32) =      5.72835  eV     1   --> B_g            
     e( 33 - 33) =      5.76004  eV     1   --> A_g            
     e( 34 - 34) =      5.96095  eV     1   --> B_g            
     e( 35 - 35) =      6.05921  eV     1   --> A_g            
     e( 36 - 37) =      6.70564  eV     2   --> A_g            
     e( 36 - 37) =      6.70564  eV     2   --> A_u            
     e( 38 - 38) =      6.74823  eV     1   --> B_u            
     e( 39 - 39) =      6.93956  eV     1   --> B_g            
     e( 40 - 40) =      7.21034  eV     1   --> A_u            
     e( 41 - 41) =      7.33360  eV     1   --> A_u            
     e( 42 - 42) =      7.36310  eV     1   --> B_u            
     e( 43 - 43) =      7.98568  eV     1   --> A_g            
     e( 44 - 44) =      8.31615  eV     1   --> B_g            
     e( 45 - 45) =      8.38118  eV     1   --> B_u            
     e( 46 - 46) =      8.51247  eV     1   --> A_u            
     e( 47 - 47) =      8.78145  eV     1   --> B_u            
     e( 48 - 48) =      9.59450  eV     1   --> A_g            
     e( 49 - 49) =     10.63452  eV     1   --> B_g            
     e( 50 - 50) =     10.64859  eV     1   --> A_g            
     e( 51 - 51) =     11.12026  eV     1   --> A_u            
     e( 52 - 52) =     11.19981  eV     1   --> B_u            
     e( 53 - 53) =     11.44291  eV     1   --> B_g            
     e( 54 - 54) =     11.45967  eV     1   --> A_g            
     e( 55 - 55) =     11.74964  eV     1   --> A_g            
     e( 56 - 56) =     12.40733  eV     1   --> B_u            
     e( 57 - 57) =     12.57997  eV     1   --> A_u            
     e( 58 - 58) =     12.67919  eV     1   --> A_u            
     e( 59 - 59) =     12.82725  eV     1   --> B_u            
     e( 60 - 60) =     13.26696  eV     1   --> B_g            
     e( 61 - 61) =     13.47808  eV     1   --> B_g            
     e( 62 - 62) =     13.77992  eV     1   --> A_u            
     e( 63 - 63) =     13.83740  eV     1   --> B_u            
     e( 64 - 64) =     14.94098  eV     1   --> A_g            
     e( 65 - 65) =     15.02640  eV     1   --> B_g            
     e( 66 - 66) =     15.89560  eV     1   --> B_u            
     e( 67 - 67) =     16.06262  eV     1   --> A_u            
     e( 68 - 68) =     16.23356  eV     1   --> A_g            
     e( 69 - 69) =     17.88663  eV     1   --> A_g            
     e( 70 - 70) =     21.67148  eV     1   --> A_u            

 **************************************************************************

 **************************************************************************

                    xk=(   0.00000,   0.03173,   0.00000  )

     point group C_s (m)    
     there are  2 classes
     the character table:

       E     s    
A'     1.00  1.00
A''    1.00 -1.00

     the symmetry operations in each class and the name of the first element:

     E        1
                                                                 
     s        2
                                                                 

     Band symmetry, C_s (m)     point group:

     e(  1 -  1) =    -54.47981  eV     1   --> A'             
     e(  2 -  2) =    -54.47002  eV     1   --> A''            
     e(  3 -  3) =    -54.42844  eV     1   --> A'             
     e(  4 -  4) =    -54.42795  eV     1   --> A''            
     e(  5 -  5) =    -28.60165  eV     1   --> A''            
     e(  6 -  6) =    -28.59903  eV     1   --> A'             
     e(  7 -  7) =    -28.59800  eV     1   --> A'             
     e(  8 -  8) =    -28.56842  eV     1   --> A''            
     e(  9 -  9) =    -28.49585  eV     1   --> A''            
     e( 10 - 10) =    -28.46184  eV     1   --> A'             
     e( 11 - 11) =    -28.13335  eV     1   --> A''            
     e( 12 - 12) =    -28.12882  eV     1   --> A'             
     e( 13 - 13) =    -28.09194  eV     1   --> A''            
     e( 14 - 14) =    -28.07507  eV     1   --> A'             
     e( 15 - 15) =    -28.03377  eV     1   --> A'             
     e( 16 - 16) =    -28.03273  eV     1   --> A''            
     e( 17 - 17) =     -8.99695  eV     1   --> A'             
     e( 18 - 18) =     -7.73049  eV     1   --> A''            
     e( 19 - 19) =     -7.72894  eV     1   --> A'             
     e( 20 - 20) =     -7.49354  eV     1   --> A''            
     e( 21 - 21) =     -7.19059  eV     1   --> A''            
     e( 22 - 22) =     -7.14352  eV     1   --> A'             
     e( 23 - 23) =     -7.11849  eV     1   --> A'             
     e( 24 - 24) =     -7.11097  eV     1   --> A''            
     e( 25 - 25) =      3.46453  eV     1   --> A''            
     e( 26 - 26) =      4.05250  eV     1   --> A'             
     e( 27 - 27) =      4.11540  eV     1   --> A''            
     e( 28 - 28) =      4.16996  eV     1   --> A'             
     e( 29 - 29) =      4.17885  eV     1   --> A''            
     e( 30 - 30) =      4.86500  eV     1   --> A'             
     e( 31 - 31) =      4.90955  eV     1   --> A''            
     e( 32 - 32) =      5.72776  eV     1   --> A''            
     e( 33 - 33) =      5.76019  eV     1   --> A'             
     e( 34 - 34) =      5.96236  eV     1   --> A''            
     e( 35 - 35) =      6.05862  eV     1   --> A'             
     e( 36 - 36) =      6.69518  eV     1   --> A'             
     e( 37 - 37) =      6.70294  eV     1   --> A''            
     e( 38 - 38) =      6.74922  eV     1   --> A'             
     e( 39 - 39) =      6.93575  eV     1   --> A''            
     e( 40 - 40) =      7.21028  eV     1   --> A''            
     e( 41 - 41) =      7.33846  eV     1   --> A''            
     e( 42 - 42) =      7.36663  eV     1   --> A'             
     e( 43 - 43) =      7.97855  eV     1   --> A'             
     e( 44 - 44) =      8.29594  eV     1   --> A''            
     e( 45 - 45) =      8.37745  eV     1   --> A'             
     e( 46 - 46) =      8.52238  eV     1   --> A''            
     e( 47 - 47) =      8.77277  eV     1   --> A'             
     e( 48 - 48) =      9.59135  eV     1   --> A'             
     e( 49 - 49) =     10.63604  eV     1   --> A''            
     e( 50 - 50) =     10.65101  eV     1   --> A'             
     e( 51 - 51) =     11.12794  eV     1   --> A''            
     e( 52 - 52) =     11.20121  eV     1   --> A'             
     e( 53 - 53) =     11.44629  eV     1   --> A''            
     e( 54 - 54) =     11.46799  eV     1   --> A'             
     e( 55 - 55) =     11.75246  eV     1   --> A'             
     e( 56 - 56) =     12.40804  eV     1   --> A'             
     e( 57 - 57) =     12.58005  eV     1   --> A''            
     e( 58 - 58) =     12.67824  eV     1   --> A''            
     e( 59 - 59) =     12.82642  eV     1   --> A'             
     e( 60 - 60) =     13.26928  eV     1   --> A''            
     e( 61 - 61) =     13.47615  eV     1   --> A''            
     e( 62 - 62) =     13.78368  eV     1   --> A''            
     e( 63 - 63) =     13.83941  eV     1   --> A'             
     e( 64 - 64) =     14.93845  eV     1   --> A'             
     e( 65 - 65) =     15.02457  eV     1   --> A''            
     e( 66 - 66) =     15.89079  eV     1   --> A'             
     e( 67 - 67) =     16.05737  eV     1   --> A''            
     e( 68 - 68) =     16.23069  eV     1   --> A'             
     e( 69 - 69) =     17.89458  eV     1   --> A'             
     e( 70 - 70) =     21.66993  eV     1   --> A''            

 **************************************************************************

 **************************************************************************

                    xk=(   0.00000,   0.06345,   0.00000  )

     Band symmetry, C_s (m)     point group:

     e(  1 -  1) =    -54.47977  eV     1   --> A'             
     e(  2 -  2) =    -54.47006  eV     1   --> A''            
     e(  3 -  3) =    -54.42844  eV     1   --> A'             
     e(  4 -  4) =    -54.42795  eV     1   --> A''            
     e(  5 -  5) =    -28.60160  eV     1   --> A''            
     e(  6 -  6) =    -28.59878  eV     1   --> A'             
     e(  7 -  7) =    -28.59795  eV     1   --> A'             
     e(  8 -  8) =    -28.56832  eV     1   --> A''            
     e(  9 -  9) =    -28.49590  eV     1   --> A''            
     e( 10 - 10) =    -28.46210  eV     1   --> A'             
     e( 11 - 11) =    -28.13337  eV     1   --> A''            
     e( 12 - 12) =    -28.12891  eV     1   --> A'             
     e( 13 - 13) =    -28.09191  eV     1   --> A''            
     e( 14 - 14) =    -28.07518  eV     1   --> A'             
     e( 15 - 15) =    -28.03376  eV     1   --> A'             
     e( 16 - 16) =    -28.03273  eV     1   --> A''            
     e( 17 - 17) =     -8.98995  eV     1   --> A'             
     e( 18 - 18) =     -7.72867  eV     1   --> A''            
     e( 19 - 19) =     -7.72693  eV     1   --> A'             
     e( 20 - 20) =     -7.49408  eV     1   --> A''            
     e( 21 - 21) =     -7.19557  eV     1   --> A''            
     e( 22 - 22) =     -7.14642  eV     1   --> A'             
     e( 23 - 23) =     -7.11970  eV     1   --> A'             
     e( 24 - 24) =     -7.11639  eV     1   --> A''            
     e( 25 - 25) =      3.47798  eV     1   --> A''            
     e( 26 - 26) =      4.04880  eV     1   --> A'             
     e( 27 - 27) =      4.12485  eV     1   --> A''            
     e( 28 - 28) =      4.19179  eV     1   --> A''            
     e( 29 - 29) =      4.19250  eV     1   --> A'             
     e( 30 - 30) =      4.86364  eV     1   --> A'             
     e( 31 - 31) =      4.90783  eV     1   --> A''            
     e( 32 - 32) =      5.72602  eV     1   --> A''            
     e( 33 - 33) =      5.76065  eV     1   --> A'             
     e( 34 - 34) =      5.96651  eV     1   --> A''            
     e( 35 - 35) =      6.05691  eV     1   --> A'             
     e( 36 - 36) =      6.66847  eV     1   --> A'             
     e( 37 - 37) =      6.69488  eV     1   --> A''            
     e( 38 - 38) =      6.74776  eV     1   --> A'             
     e( 39 - 39) =      6.92480  eV     1   --> A''            
     e( 40 - 40) =      7.21011  eV     1   --> A''            
     e( 41 - 41) =      7.35238  eV     1   --> A''            
     e( 42 - 42) =      7.37679  eV     1   --> A'             
     e( 43 - 43) =      7.95776  eV     1   --> A'             
     e( 44 - 44) =      8.24561  eV     1   --> A''            
     e( 45 - 45) =      8.36556  eV     1   --> A'             
     e( 46 - 46) =      8.54222  eV     1   --> A''            
     e( 47 - 47) =      8.74742  eV     1   --> A'             
     e( 48 - 48) =      9.58192  eV     1   --> A'             
     e( 49 - 49) =     10.64126  eV     1   --> A''            
     e( 50 - 50) =     10.65821  eV     1   --> A'             
     e( 51 - 51) =     11.15000  eV     1   --> A''            
     e( 52 - 52) =     11.20611  eV     1   --> A'             
     e( 53 - 53) =     11.45640  eV     1   --> A''            
     e( 54 - 54) =     11.49188  eV     1   --> A'             
     e( 55 - 55) =     11.76079  eV     1   --> A'             
     e( 56 - 56) =     12.41018  eV     1   --> A'             
     e( 57 - 57) =     12.58028  eV     1   --> A''            
     e( 58 - 58) =     12.67541  eV     1   --> A''            
     e( 59 - 59) =     12.82396  eV     1   --> A'             
     e( 60 - 60) =     13.27590  eV     1   --> A''            
     e( 61 - 61) =     13.47076  eV     1   --> A''            
     e( 62 - 62) =     13.79493  eV     1   --> A''            
     e( 63 - 63) =     13.84543  eV     1   --> A'             
     e( 64 - 64) =     14.93091  eV     1   --> A'             
     e( 65 - 65) =     15.01910  eV     1   --> A''            
     e( 66 - 66) =     15.87644  eV     1   --> A'             
     e( 67 - 67) =     16.04170  eV     1   --> A''            
     e( 68 - 68) =     16.22201  eV     1   --> A'             
     e( 69 - 69) =     17.91834  eV     1   --> A'             
     e( 70 - 70) =     21.66514  eV     1   --> A''            

 **************************************************************************

 **************************************************************************

                    xk=(   0.00000,   0.09518,   0.00000  )

     Band symmetry, C_s (m)     point group:

     e(  1 -  1) =    -54.47969  eV     1   --> A'             
     e(  2 -  2) =    -54.47014  eV     1   --> A''            
     e(  3 -  3) =    -54.42844  eV     1   --> A'             
     e(  4 -  4) =    -54.42796  eV     1   --> A''            
     e(  5 -  5) =    -28.60152  eV     1   --> A''            
     e(  6 -  6) =    -28.59838  eV     1   --> A'             
     e(  7 -  7) =    -28.59786  eV     1   --> A'             
     e(  8 -  8) =    -28.56816  eV     1   --> A''            
     e(  9 -  9) =    -28.49598  eV     1   --> A''            
     e( 10 - 10) =    -28.46253  eV     1   --> A'             
     e( 11 - 11) =    -28.13340  eV     1   --> A''            
     e( 12 - 12) =    -28.12906  eV     1   --> A'             
     e( 13 - 13) =    -28.09187  eV     1   --> A''            
     e( 14 - 14) =    -28.07537  eV     1   --> A'             
     e( 15 - 15) =    -28.03374  eV     1   --> A'             
     e( 16 - 16) =    -28.03272  eV     1   --> A''            
     e( 17 - 17) =     -8.97831  eV     1   --> A'             
     e( 18 - 18) =     -7.72567  eV     1   --> A''            
     e( 19 - 19) =     -7.72361  eV     1   --> A'             
     e( 20 - 20) =     -7.49515  eV     1   --> A''            
     e( 21 - 21) =     -7.20417  eV     1   --> A''            
     e( 22 - 22) =     -7.15117  eV     1   --> A'             
     e( 23 - 23) =     -7.12478  eV     1   --> A''            
     e( 24 - 24) =     -7.12176  eV     1   --> A'             
     e( 25 - 25) =      3.50013  eV     1   --> A''            
     e( 26 - 26) =      4.04670  eV     1   --> A'             
     e( 27 - 27) =      4.14070  eV     1   --> A''            
     e( 28 - 28) =      4.21312  eV     1   --> A''            
     e( 29 - 29) =      4.22579  eV     1   --> A'             
     e( 30 - 30) =      4.86144  eV     1   --> A'             
     e( 31 - 31) =      4.90519  eV     1   --> A''            
     e( 32 - 32) =      5.72320  eV     1   --> A''            
     e( 33 - 33) =      5.76144  eV     1   --> A'             
     e( 34 - 34) =      5.97317  eV     1   --> A''            
     e( 35 - 35) =      6.05419  eV     1   --> A'             
     e( 36 - 36) =      6.63034  eV     1   --> A'             
     e( 37 - 37) =      6.68158  eV     1   --> A''            
     e( 38 - 38) =      6.74015  eV     1   --> A'             
     e( 39 - 39) =      6.90781  eV     1   --> A''            
     e( 40 - 40) =      7.20993  eV     1   --> A''            
     e( 41 - 41) =      7.37364  eV     1   --> A''            
     e( 42 - 42) =      7.39226  eV     1   --> A'             
     e( 43 - 43) =      7.92507  eV     1   --> A'             
     e( 44 - 44) =      8.17917  eV     1   --> A''            
     e( 45 - 45) =      8.34362  eV     1   --> A'             
     e( 46 - 46) =      8.55939  eV     1   --> A''            
     e( 47 - 47) =      8.70752  eV     1   --> A'             
     e( 48 - 48) =      9.56629  eV     1   --> A'             
     e( 49 - 49) =     10.65176  eV     1   --> A''            
     e( 50 - 50) =     10.67005  eV     1   --> A'             
     e( 51 - 51) =     11.18390  eV     1   --> A''            
     e( 52 - 52) =     11.21606  eV     1   --> A'             
     e( 53 - 53) =     11.47320  eV     1   --> A''            
     e( 54 - 54) =     11.52873  eV     1   --> A'             
     e( 55 - 55) =     11.77428  eV     1   --> A'             
     e( 56 - 56) =     12.41377  eV     1   --> A'             
     e( 57 - 57) =     12.58064  eV     1   --> A''            
     e( 58 - 58) =     12.67073  eV     1   --> A''            
     e( 59 - 59) =     12.81989  eV     1   --> A'             
     e( 60 - 60) =     13.28561  eV     1   --> A''            
     e( 61 - 61) =     13.46325  eV     1   --> A''            
     e( 62 - 62) =     13.81354  eV     1   --> A''            
     e( 63 - 63) =     13.85547  eV     1   --> A'             
     e( 64 - 64) =     14.91852  eV     1   --> A'             
     e( 65 - 65) =     15.01004  eV     1   --> A''            
     e( 66 - 66) =     15.85276  eV     1   --> A'             
     e( 67 - 67) =     16.01590  eV     1   --> A''            
     e( 68 - 68) =     16.20735  eV     1   --> A'             
     e( 69 - 69) =     17.95774  eV     1   --> A'             
     e( 70 - 70) =     21.65658  eV     1   --> A''            

 **************************************************************************

 **************************************************************************

                    xk=(   0.00000,   0.12691,   0.00000  )

     Band symmetry, C_s (m)     point group:

     e(  1 -  1) =    -54.47959  eV     1   --> A'             
     e(  2 -  2) =    -54.47024  eV     1   --> A''            
     e(  3 -  3) =    -54.42843  eV     1   --> A'             
     e(  4 -  4) =    -54.42796  eV     1   --> A''            
     e(  5 -  5) =    -28.60140  eV     1   --> A''            
     e(  6 -  6) =    -28.59798  eV     1   --> A'             
     e(  7 -  7) =    -28.59757  eV     1   --> A'             
     e(  8 -  8) =    -28.56796  eV     1   --> A''            
     e(  9 -  9) =    -28.49609  eV     1   --> A''            
     e( 10 - 10) =    -28.46314  eV     1   --> A'             
     e( 11 - 11) =    -28.13344  eV     1   --> A''            
     e( 12 - 12) =    -28.12926  eV     1   --> A'             
     e( 13 - 13) =    -28.09181  eV     1   --> A''            
     e( 14 - 14) =    -28.07562  eV     1   --> A'             
     e( 15 - 15) =    -28.03371  eV     1   --> A'             
     e( 16 - 16) =    -28.03272  eV     1   --> A''            
     e( 17 - 17) =     -8.96208  eV     1   --> A'             
     e( 18 - 18) =     -7.72157  eV     1   --> A''            
     e( 19 - 19) =     -7.71898  eV     1   --> A'             
     e( 20 - 20) =     -7.49702  eV     1   --> A''            
     e( 21 - 21) =     -7.21673  eV     1   --> A''            
     e( 22 - 22) =     -7.15768  eV     1   --> A'             
     e( 23 - 23) =     -7.13526  eV     1   --> A''            
     e( 24 - 24) =     -7.12468  eV     1   --> A'             
     e( 25 - 25) =      3.53060  eV     1   --> A''            
     e( 26 - 26) =      4.04828  eV     1   --> A'             
     e( 27 - 27) =      4.16298  eV     1   --> A''            
     e( 28 - 28) =      4.24261  eV     1   --> A''            
     e( 29 - 29) =      4.26744  eV     1   --> A'             
     e( 30 - 30) =      4.85852  eV     1   --> A'             
     e( 31 - 31) =      4.90198  eV     1   --> A''            
     e( 32 - 32) =      5.71945  eV     1   --> A''            
     e( 33 - 33) =      5.76257  eV     1   --> A'             
     e( 34 - 34) =      5.98196  eV     1   --> A''            
     e( 35 - 35) =      6.05062  eV     1   --> A'             
     e( 36 - 36) =      6.58268  eV     1   --> A'             
     e( 37 - 37) =      6.66331  eV     1   --> A''            
     e( 38 - 38) =      6.72608  eV     1   --> A'             
     e( 39 - 39) =      6.88589  eV     1   --> A''            
     e( 40 - 40) =      7.20990  eV     1   --> A''            
     e( 41 - 41) =      7.40001  eV     1   --> A''            
     e( 42 - 42) =      7.41081  eV     1   --> A'             
     e( 43 - 43) =      7.88323  eV     1   --> A'             
     e( 44 - 44) =      8.10436  eV     1   --> A''            
     e( 45 - 45) =      8.30872  eV     1   --> A'             
     e( 46 - 46) =      8.56853  eV     1   --> A''            
     e( 47 - 47) =      8.65650  eV     1   --> A'             
     e( 48 - 48) =      9.54461  eV     1   --> A'             
     e( 49 - 49) =     10.66907  eV     1   --> A''            
     e( 50 - 50) =     10.68631  eV     1   --> A'             
     e( 51 - 51) =     11.22643  eV     1   --> A''            
     e( 52 - 52) =     11.23247  eV     1   --> A'             
     e( 53 - 53) =     11.49662  eV     1   --> A''            
     e( 54 - 54) =     11.57548  eV     1   --> A'             
     e( 55 - 55) =     11.79237  eV     1   --> A'             
     e( 56 - 56) =     12.41886  eV     1   --> A'             
     e( 57 - 57) =     12.58110  eV     1   --> A''            
     e( 58 - 58) =     12.66429  eV     1   --> A''            
     e( 59 - 59) =     12.81431  eV     1   --> A'             
     e( 60 - 60) =     13.29556  eV     1   --> A''            
     e( 61 - 61) =     13.45665  eV     1   --> A''            
     e( 62 - 62) =     13.83936  eV     1   --> A''            
     e( 63 - 63) =     13.86952  eV     1   --> A'             
     e( 64 - 64) =     14.90155  eV     1   --> A'             
     e( 65 - 65) =     14.99750  eV     1   --> A''            
     e( 66 - 66) =     15.82011  eV     1   --> A'             
     e( 67 - 67) =     15.98041  eV     1   --> A''            
     e( 68 - 68) =     16.18645  eV     1   --> A'             
     e( 69 - 69) =     18.01243  eV     1   --> A'             
     e( 70 - 70) =     21.64347  eV     1   --> A''            

 **************************************************************************

 **************************************************************************

                    xk=(   0.00000,   0.15863,   0.00000  )

     Band symmetry, C_s (m)     point group:

     e(  1 -  1) =    -54.47945  eV     1   --> A'             
     e(  2 -  2) =    -54.47037  eV     1   --> A''            
     e(  3 -  3) =    -54.42843  eV     1   --> A'             
     e(  4 -  4) =    -54.42797  eV     1   --> A''            
     e(  5 -  5) =    -28.60126  eV     1   --> A''            
     e(  6 -  6) =    -28.59781  eV     1   --> A'             
     e(  7 -  7) =    -28.59687  eV     1   --> A'             
     e(  8 -  8) =    -28.56772  eV     1   --> A''            
     e(  9 -  9) =    -28.49620  eV     1   --> A''            
     e( 10 - 10) =    -28.46390  eV     1   --> A'             
     e( 11 - 11) =    -28.13349  eV     1   --> A''            
     e( 12 - 12) =    -28.12951  eV     1   --> A'             
     e( 13 - 13) =    -28.09172  eV     1   --> A''            
     e( 14 - 14) =    -28.07594  eV     1   --> A'             
     e( 15 - 15) =    -28.03367  eV     1   --> A'             
     e( 16 - 16) =    -28.03271  eV     1   --> A''            
     e( 17 - 17) =     -8.94132  eV     1   --> A'             
     e( 18 - 18) =     -7.71648  eV     1   --> A''            
     e( 19 - 19) =     -7.71310  eV     1   --> A'             
     e( 20 - 20) =     -7.50017  eV     1   --> A''            
     e( 21 - 21) =     -7.23334  eV     1   --> A''            
     e( 22 - 22) =     -7.16583  eV     1   --> A'             
     e( 23 - 23) =     -7.14692  eV     1   --> A''            
     e( 24 - 24) =     -7.12848  eV     1   --> A'             
     e( 25 - 25) =      3.56888  eV     1   --> A''            
     e( 26 - 26) =      4.05442  eV     1   --> A'             
     e( 27 - 27) =      4.19160  eV     1   --> A''            
     e( 28 - 28) =      4.27997  eV     1   --> A''            
     e( 29 - 29) =      4.31608  eV     1   --> A'             
     e( 30 - 30) =      4.85507  eV     1   --> A'             
     e( 31 - 31) =      4.89873  eV     1   --> A''            
     e( 32 - 32) =      5.71492  eV     1   --> A''            
     e( 33 - 33) =      5.76410  eV     1   --> A'             
     e( 34 - 34) =      5.99232  eV     1   --> A''            
     e( 35 - 35) =      6.04641  eV     1   --> A'             
     e( 36 - 36) =      6.52654  eV     1   --> A'             
     e( 37 - 37) =      6.64054  eV     1   --> A''            
     e( 38 - 38) =      6.70637  eV     1   --> A'             
     e( 39 - 39) =      6.85976  eV     1   --> A''            
     e( 40 - 40) =      7.21027  eV     1   --> A''            
     e( 41 - 42) =      7.42904  eV     2   --> A'             
     e( 41 - 42) =      7.42904  eV     2   --> A''            
     e( 43 - 43) =      7.83615  eV     1   --> A'             
     e( 44 - 44) =      8.02576  eV     1   --> A''            
     e( 45 - 45) =      8.25755  eV     1   --> A'             
     e( 46 - 46) =      8.56867  eV     1   --> A''            
     e( 47 - 47) =      8.59877  eV     1   --> A'             
     e( 48 - 48) =      9.51709  eV     1   --> A'             
     e( 49 - 49) =     10.69397  eV     1   --> A''            
     e( 50 - 50) =     10.70671  eV     1   --> A'             
     e( 51 - 51) =     11.25605  eV     1   --> A'             
     e( 52 - 52) =     11.27446  eV     1   --> A''            
     e( 53 - 53) =     11.52650  eV     1   --> A''            
     e( 54 - 54) =     11.62928  eV     1   --> A'             
     e( 55 - 55) =     11.81431  eV     1   --> A'             
     e( 56 - 56) =     12.42550  eV     1   --> A'             
     e( 57 - 57) =     12.58155  eV     1   --> A''            
     e( 58 - 58) =     12.65621  eV     1   --> A''            
     e( 59 - 59) =     12.80729  eV     1   --> A'             
     e( 60 - 60) =     13.30037  eV     1   --> A''            
     e( 61 - 61) =     13.45659  eV     1   --> A''            
     e( 62 - 62) =     13.87217  eV     1   --> A''            
     e( 63 - 63) =     13.88758  eV     1   --> A'             
     e( 64 - 64) =     14.88041  eV     1   --> A'             
     e( 65 - 65) =     14.98163  eV     1   --> A''            
     e( 66 - 66) =     15.77893  eV     1   --> A'             
     e( 67 - 67) =     15.93583  eV     1   --> A''            
     e( 68 - 68) =     16.15905  eV     1   --> A'             
     e( 69 - 69) =     18.08189  eV     1   --> A'             
     e( 70 - 70) =     21.62477  eV     1   --> A''            

 **************************************************************************

 **************************************************************************

                    xk=(   0.00000,   0.19036,   0.00000  )

     Band symmetry, C_s (m)     point group:

     e(  1 -  1) =    -54.47929  eV     1   --> A'             
     e(  2 -  2) =    -54.47053  eV     1   --> A''            
     e(  3 -  3) =    -54.42842  eV     1   --> A'             
     e(  4 -  4) =    -54.42798  eV     1   --> A''            
     e(  5 -  5) =    -28.60108  eV     1   --> A''            
     e(  6 -  6) =    -28.59768  eV     1   --> A'             
     e(  7 -  7) =    -28.59596  eV     1   --> A'             
     e(  8 -  8) =    -28.56746  eV     1   --> A''            
     e(  9 -  9) =    -28.49631  eV     1   --> A''            
     e( 10 - 10) =    -28.46483  eV     1   --> A'             
     e( 11 - 11) =    -28.13355  eV     1   --> A''            
     e( 12 - 12) =    -28.12981  eV     1   --> A'             
     e( 13 - 13) =    -28.09160  eV     1   --> A''            
     e( 14 - 14) =    -28.07632  eV     1   --> A'             
     e( 15 - 15) =    -28.03363  eV     1   --> A'             
     e( 16 - 16) =    -28.03271  eV     1   --> A''            
     e( 17 - 17) =     -8.91614  eV     1   --> A'             
     e( 18 - 18) =     -7.71061  eV     1   --> A''            
     e( 19 - 19) =     -7.70599  eV     1   --> A'             
     e( 20 - 20) =     -7.50527  eV     1   --> A''            
     e( 21 - 21) =     -7.25354  eV     1   --> A''            
     e( 22 - 22) =     -7.17551  eV     1   --> A'             
     e( 23 - 23) =     -7.15902  eV     1   --> A''            
     e( 24 - 24) =     -7.13314  eV     1   --> A'             
     e( 25 - 25) =      3.61431  eV     1   --> A''            
     e( 26 - 26) =      4.06541  eV     1   --> A'             
     e( 27 - 27) =      4.22624  eV     1   --> A''            
     e( 28 - 28) =      4.32494  eV     1   --> A''            
     e( 29 - 29) =      4.37070  eV     1   --> A'             
     e( 30 - 30) =      4.85144  eV     1   --> A'             
     e( 31 - 31) =      4.89618  eV     1   --> A''            
     e( 32 - 32) =      5.70976  eV     1   --> A''            
     e( 33 - 33) =      5.76602  eV     1   --> A'             
     e( 34 - 34) =      6.00354  eV     1   --> A''            
     e( 35 - 35) =      6.04170  eV     1   --> A'             
     e( 36 - 36) =      6.46280  eV     1   --> A'             
     e( 37 - 37) =      6.61391  eV     1   --> A''            
     e( 38 - 38) =      6.68211  eV     1   --> A'             
     e( 39 - 39) =      6.82967  eV     1   --> A''            
     e( 40 - 40) =      7.21133  eV     1   --> A''            
     e( 41 - 41) =      7.44160  eV     1   --> A'             
     e( 42 - 42) =      7.45783  eV     1   --> A''            
     e( 43 - 43) =      7.78970  eV     1   --> A'             
     e( 44 - 44) =      7.94718  eV     1   --> A''            
     e( 45 - 45) =      8.18741  eV     1   --> A'             
     e( 46 - 46) =      8.53863  eV     1   --> A'             
     e( 47 - 47) =      8.56101  eV     1   --> A''            
     e( 48 - 48) =      9.48402  eV     1   --> A'             
     e( 49 - 49) =     10.72619  eV     1   --> A''            
     e( 50 - 50) =     10.73088  eV     1   --> A'             
     e( 51 - 51) =     11.28689  eV     1   --> A'             
     e( 52 - 52) =     11.32540  eV     1   --> A''            
     e( 53 - 53) =     11.56260  eV     1   --> A''            
     e( 54 - 54) =     11.68769  eV     1   --> A'             
     e( 55 - 55) =     11.83921  eV     1   --> A'             
     e( 56 - 56) =     12.43379  eV     1   --> A'             
     e( 57 - 57) =     12.58176  eV     1   --> A''            
     e( 58 - 58) =     12.64674  eV     1   --> A''            
     e( 59 - 59) =     12.79898  eV     1   --> A'             
     e( 60 - 60) =     13.29385  eV     1   --> A''            
     e( 61 - 61) =     13.46954  eV     1   --> A''            
     e( 62 - 62) =     13.90960  eV     1   --> A'             
     e( 63 - 63) =     13.91170  eV     1   --> A''            
     e( 64 - 64) =     14.85558  eV     1   --> A'             
     e( 65 - 65) =     14.96264  eV     1   --> A''            
     e( 66 - 66) =     15.72977  eV     1   --> A'             
     e( 67 - 67) =     15.88291  eV     1   --> A''            
     e( 68 - 68) =     16.12496  eV     1   --> A'             
     e( 69 - 69) =     18.16545  eV     1   --> A'             
     e( 70 - 70) =     21.59929  eV     1   --> A''            

 **************************************************************************

 **************************************************************************

                    xk=(   0.00000,   0.22209,   0.00000  )

     Band symmetry, C_s (m)     point group:

     e(  1 -  1) =    -54.47910  eV     1   --> A'             
     e(  2 -  2) =    -54.47072  eV     1   --> A''            
     e(  3 -  3) =    -54.42842  eV     1   --> A'             
     e(  4 -  4) =    -54.42799  eV     1   --> A''            
     e(  5 -  5) =    -28.60088  eV     1   --> A''            
     e(  6 -  6) =    -28.59756  eV     1   --> A'             
     e(  7 -  7) =    -28.59489  eV     1   --> A'             
     e(  8 -  8) =    -28.56721  eV     1   --> A''            
     e(  9 -  9) =    -28.49639  eV     1   --> A''            
     e( 10 - 10) =    -28.46590  eV     1   --> A'             
     e( 11 - 11) =    -28.13362  eV     1   --> A''            
     e( 12 - 12) =    -28.13014  eV     1   --> A'             
     e( 13 - 13) =    -28.09146  eV     1   --> A''            
     e( 14 - 14) =    -28.07677  eV     1   --> A'             
     e( 15 - 15) =    -28.03358  eV     1   --> A'             
     e( 16 - 16) =    -28.03271  eV     1   --> A''            
     e( 17 - 17) =     -8.88662  eV     1   --> A'             
     e( 18 - 18) =     -7.70426  eV     1   --> A''            
     e( 19 - 19) =     -7.69774  eV     1   --> A'             
     e( 20 - 20) =     -7.51327  eV     1   --> A''            
     e( 21 - 21) =     -7.27605  eV     1   --> A''            
     e( 22 - 22) =     -7.18663  eV     1   --> A'             
     e( 23 - 23) =     -7.17120  eV     1   --> A''            
     e( 24 - 24) =     -7.13863  eV     1   --> A'             
     e( 25 - 25) =      3.66614  eV     1   --> A''            
     e( 26 - 26) =      4.08120  eV     1   --> A'             
     e( 27 - 27) =      4.26631  eV     1   --> A''            
     e( 28 - 28) =      4.37720  eV     1   --> A''            
     e( 29 - 29) =      4.43030  eV     1   --> A'             
     e( 30 - 30) =      4.84822  eV     1   --> A'             
     e( 31 - 31) =      4.89538  eV     1   --> A''            
     e( 32 - 32) =      5.70412  eV     1   --> A''            
     e( 33 - 33) =      5.76837  eV     1   --> A'             
     e( 34 - 34) =      6.01475  eV     1   --> A''            
     e( 35 - 35) =      6.03654  eV     1   --> A'             
     e( 36 - 36) =      6.39249  eV     1   --> A'             
     e( 37 - 37) =      6.58427  eV     1   --> A''            
     e( 38 - 38) =      6.65432  eV     1   --> A'             
     e( 39 - 39) =      6.79554  eV     1   --> A''            
     e( 40 - 40) =      7.21341  eV     1   --> A''            
     e( 41 - 41) =      7.44037  eV     1   --> A'             
     e( 42 - 42) =      7.48219  eV     1   --> A''            
     e( 43 - 43) =      7.75242  eV     1   --> A'             
     e( 44 - 44) =      7.87329  eV     1   --> A''            
     e( 45 - 45) =      8.09757  eV     1   --> A'             
     e( 46 - 46) =      8.47885  eV     1   --> A'             
     e( 47 - 47) =      8.54792  eV     1   --> A''            
     e( 48 - 48) =      9.44573  eV     1   --> A'             
     e( 49 - 49) =     10.75835  eV     1   --> A'             
     e( 50 - 50) =     10.76455  eV     1   --> A''            
     e( 51 - 51) =     11.32460  eV     1   --> A'             
     e( 52 - 52) =     11.37731  eV     1   --> A''            
     e( 53 - 53) =     11.60442  eV     1   --> A''            
     e( 54 - 54) =     11.74865  eV     1   --> A'             
     e( 55 - 55) =     11.86606  eV     1   --> A'             
     e( 56 - 56) =     12.44382  eV     1   --> A'             
     e( 57 - 57) =     12.58120  eV     1   --> A''            
     e( 58 - 58) =     12.63638  eV     1   --> A''            
     e( 59 - 59) =     12.78954  eV     1   --> A'             
     e( 60 - 60) =     13.27426  eV     1   --> A''            
     e( 61 - 61) =     13.49744  eV     1   --> A''            
     e( 62 - 62) =     13.93551  eV     1   --> A'             
     e( 63 - 63) =     13.95768  eV     1   --> A''            
     e( 64 - 64) =     14.82769  eV     1   --> A'             
     e( 65 - 65) =     14.94080  eV     1   --> A''            
     e( 66 - 66) =     15.67326  eV     1   --> A'             
     e( 67 - 67) =     15.82249  eV     1   --> A''            
     e( 68 - 68) =     16.08406  eV     1   --> A'             
     e( 69 - 69) =     18.26223  eV     1   --> A'             
     e( 70 - 70) =     21.56577  eV     1   --> A''            

 **************************************************************************

 **************************************************************************

                    xk=(   0.00000,   0.25381,   0.00000  )

     Band symmetry, C_s (m)     point group:

     e(  1 -  1) =    -54.47888  eV     1   --> A'             
     e(  2 -  2) =    -54.47093  eV     1   --> A''            
     e(  3 -  3) =    -54.42841  eV     1   --> A'             
     e(  4 -  4) =    -54.42801  eV     1   --> A''            
     e(  5 -  5) =    -28.60065  eV     1   --> A''            
     e(  6 -  6) =    -28.59744  eV     1   --> A'             
     e(  7 -  7) =    -28.59368  eV     1   --> A'             
     e(  8 -  8) =    -28.56700  eV     1   --> A''            
     e(  9 -  9) =    -28.49643  eV     1   --> A''            
     e( 10 - 10) =    -28.46711  eV     1   --> A'             
     e( 11 - 11) =    -28.13371  eV     1   --> A''            
     e( 12 - 12) =    -28.13050  eV     1   --> A'             
     e( 13 - 13) =    -28.09127  eV     1   --> A''            
     e( 14 - 14) =    -28.07727  eV     1   --> A'             
     e( 15 - 15) =    -28.03353  eV     1   --> A'             
     e( 16 - 16) =    -28.03270  eV     1   --> A''            
     e( 17 - 17) =     -8.85289  eV     1   --> A'             
     e( 18 - 18) =     -7.69804  eV     1   --> A''            
     e( 19 - 19) =     -7.68840  eV     1   --> A'             
     e( 20 - 20) =     -7.52527  eV     1   --> A''            
     e( 21 - 21) =     -7.29894  eV     1   --> A''            
     e( 22 - 22) =     -7.19905  eV     1   --> A'             
     e( 23 - 23) =     -7.18330  eV     1   --> A''            
     e( 24 - 24) =     -7.14487  eV     1   --> A'             
     e( 25 - 25) =      3.72351  eV     1   --> A''            
     e( 26 - 26) =      4.10157  eV     1   --> A'             
     e( 27 - 27) =      4.31081  eV     1   --> A''            
     e( 28 - 28) =      4.43628  eV     1   --> A''            
     e( 29 - 29) =      4.49346  eV     1   --> A'             
     e( 30 - 30) =      4.84650  eV     1   --> A'             
     e( 31 - 31) =      4.89785  eV     1   --> A''            
     e( 32 - 32) =      5.69807  eV     1   --> A''            
     e( 33 - 33) =      5.77110  eV     1   --> A'             
     e( 34 - 34) =      6.02494  eV     1   --> A''            
     e( 35 - 35) =      6.03077  eV     1   --> A'             
     e( 36 - 36) =      6.31683  eV     1   --> A'             
     e( 37 - 37) =      6.55266  eV     1   --> A''            
     e( 38 - 38) =      6.62383  eV     1   --> A'             
     e( 39 - 39) =      6.75719  eV     1   --> A''            
     e( 40 - 40) =      7.21681  eV     1   --> A''            
     e( 41 - 41) =      7.41701  eV     1   --> A'             
     e( 42 - 42) =      7.49491  eV     1   --> A''            
     e( 43 - 43) =      7.73309  eV     1   --> A'             
     e( 44 - 44) =      7.81160  eV     1   --> A''            
     e( 45 - 45) =      7.98983  eV     1   --> A'             
     e( 46 - 46) =      8.42013  eV     1   --> A'             
     e( 47 - 47) =      8.53229  eV     1   --> A''            
     e( 48 - 48) =      9.40265  eV     1   --> A'             
     e( 49 - 49) =     10.78853  eV     1   --> A'             
     e( 50 - 50) =     10.80728  eV     1   --> A''            
     e( 51 - 51) =     11.36853  eV     1   --> A'             
     e( 52 - 52) =     11.42901  eV     1   --> A''            
     e( 53 - 53) =     11.65124  eV     1   --> A''            
     e( 54 - 54) =     11.81039  eV     1   --> A'             
     e( 55 - 55) =     11.89379  eV     1   --> A'             
     e( 56 - 56) =     12.45569  eV     1   --> A'             
     e( 57 - 57) =     12.57865  eV     1   --> A''            
     e( 58 - 58) =     12.62626  eV     1   --> A''            
     e( 59 - 59) =     12.77916  eV     1   --> A'             
     e( 60 - 60) =     13.24448  eV     1   --> A''            
     e( 61 - 61) =     13.53764  eV     1   --> A''            
     e( 62 - 62) =     13.96521  eV     1   --> A'             
     e( 63 - 63) =     14.00980  eV     1   --> A''            
     e( 64 - 64) =     14.79748  eV     1   --> A'             
     e( 65 - 65) =     14.91648  eV     1   --> A''            
     e( 66 - 66) =     15.61007  eV     1   --> A'             
     e( 67 - 67) =     15.75548  eV     1   --> A''            
     e( 68 - 68) =     16.03637  eV     1   --> A'             
     e( 69 - 69) =     18.37125  eV     1   --> A'             
     e( 70 - 70) =     21.52304  eV     1   --> A''            

 **************************************************************************

 **************************************************************************

                    xk=(   0.00000,   0.28554,   0.00000  )

     Band symmetry, C_s (m)     point group:

     e(  1 -  1) =    -54.47864  eV     1   --> A'             
     e(  2 -  2) =    -54.47117  eV     1   --> A''            
     e(  3 -  3) =    -54.42840  eV     1   --> A'             
     e(  4 -  4) =    -54.42802  eV     1   --> A''            
     e(  5 -  5) =    -28.60040  eV     1   --> A''            
     e(  6 -  6) =    -28.59732  eV     1   --> A'             
     e(  7 -  7) =    -28.59234  eV     1   --> A'             
     e(  8 -  8) =    -28.56684  eV     1   --> A''            
     e(  9 -  9) =    -28.49640  eV     1   --> A''            
     e( 10 - 10) =    -28.46846  eV     1   --> A'             
     e( 11 - 11) =    -28.13380  eV     1   --> A''            
     e( 12 - 12) =    -28.13088  eV     1   --> A'             
     e( 13 - 13) =    -28.09105  eV     1   --> A''            
     e( 14 - 14) =    -28.07783  eV     1   --> A'             
     e( 15 - 15) =    -28.03348  eV     1   --> A'             
     e( 16 - 16) =    -28.03270  eV     1   --> A''            
     e( 17 - 17) =     -8.81511  eV     1   --> A'             
     e( 18 - 18) =     -7.69311  eV     1   --> A''            
     e( 19 - 19) =     -7.67806  eV     1   --> A'             
     e( 20 - 20) =     -7.54196  eV     1   --> A''            
     e( 21 - 21) =     -7.31997  eV     1   --> A''            
     e( 22 - 22) =     -7.21264  eV     1   --> A'             
     e( 23 - 23) =     -7.19527  eV     1   --> A''            
     e( 24 - 24) =     -7.15182  eV     1   --> A'             
     e( 25 - 25) =      3.78552  eV     1   --> A''            
     e( 26 - 26) =      4.12612  eV     1   --> A'             
     e( 27 - 27) =      4.35826  eV     1   --> A''            
     e( 28 - 28) =      4.50138  eV     1   --> A''            
     e( 29 - 29) =      4.55774  eV     1   --> A'             
     e( 30 - 30) =      4.84839  eV     1   --> A'             
     e( 31 - 31) =      4.90579  eV     1   --> A''            
     e( 32 - 32) =      5.69161  eV     1   --> A''            
     e( 33 - 33) =      5.77415  eV     1   --> A'             
     e( 34 - 34) =      6.02372  eV     1   --> A'             
     e( 35 - 35) =      6.03300  eV     1   --> A''            
     e( 36 - 36) =      6.23761  eV     1   --> A'             
     e( 37 - 37) =      6.52026  eV     1   --> A''            
     e( 38 - 38) =      6.59127  eV     1   --> A'             
     e( 39 - 39) =      6.71447  eV     1   --> A''            
     e( 40 - 40) =      7.22161  eV     1   --> A''            
     e( 41 - 41) =      7.37042  eV     1   --> A'             
     e( 42 - 42) =      7.48540  eV     1   --> A''            
     e( 43 - 43) =      7.73268  eV     1   --> A'             
     e( 44 - 44) =      7.77322  eV     1   --> A''            
     e( 45 - 45) =      7.86799  eV     1   --> A'             
     e( 46 - 46) =      8.36193  eV     1   --> A'             
     e( 47 - 47) =      8.51701  eV     1   --> A''            
     e( 48 - 48) =      9.35525  eV     1   --> A'             
     e( 49 - 49) =     10.82073  eV     1   --> A'             
     e( 50 - 50) =     10.85229  eV     1   --> A''            
     e( 51 - 51) =     11.41793  eV     1   --> A'             
     e( 52 - 52) =     11.47991  eV     1   --> A''            
     e( 53 - 53) =     11.70201  eV     1   --> A''            
     e( 54 - 54) =     11.87138  eV     1   --> A'             
     e( 55 - 55) =     11.92132  eV     1   --> A'             
     e( 56 - 56) =     12.46946  eV     1   --> A'             
     e( 57 - 57) =     12.57191  eV     1   --> A''            
     e( 58 - 58) =     12.61845  eV     1   --> A''            
     e( 59 - 59) =     12.76807  eV     1   --> A'             
     e( 60 - 60) =     13.20776  eV     1   --> A''            
     e( 61 - 61) =     13.58706  eV     1   --> A''            
     e( 62 - 62) =     13.99851  eV     1   --> A'             
     e( 63 - 63) =     14.06774  eV     1   --> A''            
     e( 64 - 64) =     14.76583  eV     1   --> A'             
     e( 65 - 65) =     14.89017  eV     1   --> A''            
     e( 66 - 66) =     15.54094  eV     1   --> A'             
     e( 67 - 67) =     15.68287  eV     1   --> A''            
     e( 68 - 68) =     15.98200  eV     1   --> A'             
     e( 69 - 69) =     18.49137  eV     1   --> A'             
     e( 70 - 70) =     21.47004  eV     1   --> A''            

 **************************************************************************

 **************************************************************************

                    xk=(   0.00000,   0.31727,   0.00000  )

     Band symmetry, C_s (m)     point group:

     e(  1 -  1) =    -54.47837  eV     1   --> A'             
     e(  2 -  2) =    -54.47143  eV     1   --> A''            
     e(  3 -  3) =    -54.42839  eV     1   --> A'             
     e(  4 -  4) =    -54.42804  eV     1   --> A''            
     e(  5 -  5) =    -28.60013  eV     1   --> A''            
     e(  6 -  6) =    -28.59721  eV     1   --> A'             
     e(  7 -  7) =    -28.59089  eV     1   --> A'             
     e(  8 -  8) =    -28.56676  eV     1   --> A''            
     e(  9 -  9) =    -28.49628  eV     1   --> A''            
     e( 10 - 10) =    -28.46991  eV     1   --> A'             
     e( 11 - 11) =    -28.13389  eV     1   --> A''            
     e( 12 - 12) =    -28.13128  eV     1   --> A'             
     e( 13 - 13) =    -28.09079  eV     1   --> A''            
     e( 14 - 14) =    -28.07843  eV     1   --> A'             
     e( 15 - 15) =    -28.03342  eV     1   --> A'             
     e( 16 - 16) =    -28.03270  eV     1   --> A''            
     e( 17 - 17) =     -8.77344  eV     1   --> A'             
     e( 18 - 18) =     -7.69203  eV     1   --> A''            
     e( 19 - 19) =     -7.66682  eV     1   --> A'             
     e( 20 - 20) =     -7.56218  eV     1   --> A''            
     e( 21 - 21) =     -7.33738  eV     1   --> A''            
     e( 22 - 22) =     -7.22726  eV     1   --> A'             
     e( 23 - 23) =     -7.20698  eV     1   --> A''            
     e( 24 - 24) =     -7.15937  eV     1   --> A'             
     e( 25 - 25) =      3.85123  eV     1   --> A''            
     e( 26 - 26) =      4.15432  eV     1   --> A'             
     e( 27 - 27) =      4.40649  eV     1   --> A''            
     e( 28 - 28) =      4.57120  eV     1   --> A''            
     e( 29 - 29) =      4.61846  eV     1   --> A'             
     e( 30 - 30) =      4.85824  eV     1   --> A'             
     e( 31 - 31) =      4.92243  eV     1   --> A''            
     e( 32 - 32) =      5.68463  eV     1   --> A''            
     e( 33 - 33) =      5.77737  eV     1   --> A'             
     e( 34 - 34) =      6.01310  eV     1   --> A'             
     e( 35 - 35) =      6.03780  eV     1   --> A''            
     e( 36 - 36) =      6.15823  eV     1   --> A'             
     e( 37 - 37) =      6.48839  eV     1   --> A''            
     e( 38 - 38) =      6.55706  eV     1   --> A'             
     e( 39 - 39) =      6.66738  eV     1   --> A''            
     e( 40 - 40) =      7.22722  eV     1   --> A''            
     e( 41 - 41) =      7.30767  eV     1   --> A'             
     e( 42 - 42) =      7.44887  eV     1   --> A''            
     e( 43 - 43) =      7.71887  eV     1   --> A'             
     e( 44 - 44) =      7.76139  eV     1   --> A'             
     e( 45 - 45) =      7.76427  eV     1   --> A''            
     e( 46 - 46) =      8.30366  eV     1   --> A'             
     e( 47 - 47) =      8.50466  eV     1   --> A''            
     e( 48 - 48) =      9.30406  eV     1   --> A'             
     e( 49 - 49) =     10.85419  eV     1   --> A'             
     e( 50 - 50) =     10.89751  eV     1   --> A''            
     e( 51 - 51) =     11.47203  eV     1   --> A'             
     e( 52 - 52) =     11.52988  eV     1   --> A''            
     e( 53 - 53) =     11.75554  eV     1   --> A''            
     e( 54 - 54) =     11.92966  eV     1   --> A'             
     e( 55 - 55) =     11.94823  eV     1   --> A'             
     e( 56 - 56) =     12.48510  eV     1   --> A'             
     e( 57 - 57) =     12.55907  eV     1   --> A''            
     e( 58 - 58) =     12.61463  eV     1   --> A''            
     e( 59 - 59) =     12.75658  eV     1   --> A'             
     e( 60 - 60) =     13.16636  eV     1   --> A''            
     e( 61 - 61) =     13.64358  eV     1   --> A''            
     e( 62 - 62) =     14.03511  eV     1   --> A'             
     e( 63 - 63) =     14.13110  eV     1   --> A''            
     e( 64 - 64) =     14.73378  eV     1   --> A'             
     e( 65 - 65) =     14.86249  eV     1   --> A''            
     e( 66 - 66) =     15.46668  eV     1   --> A'             
     e( 67 - 67) =     15.60567  eV     1   --> A''            
     e( 68 - 68) =     15.92117  eV     1   --> A'             
     e( 69 - 69) =     18.62140  eV     1   --> A'             
     e( 70 - 70) =     21.40597  eV     1   --> A''            

 **************************************************************************

 **************************************************************************

                    xk=(   0.00000,   0.34900,   0.00000  )

     Band symmetry, C_s (m)     point group:

     e(  1 -  1) =    -54.47809  eV     1   --> A'             
     e(  2 -  2) =    -54.47171  eV     1   --> A''            
     e(  3 -  3) =    -54.42837  eV     1   --> A'             
     e(  4 -  4) =    -54.42805  eV     1   --> A''            
     e(  5 -  5) =    -28.59985  eV     1   --> A''            
     e(  6 -  6) =    -28.59711  eV     1   --> A'             
     e(  7 -  7) =    -28.58934  eV     1   --> A'             
     e(  8 -  8) =    -28.56679  eV     1   --> A''            
     e(  9 -  9) =    -28.49604  eV     1   --> A''            
     e( 10 - 10) =    -28.47147  eV     1   --> A'             
     e( 11 - 11) =    -28.13399  eV     1   --> A''            
     e( 12 - 12) =    -28.13167  eV     1   --> A'             
     e( 13 - 13) =    -28.09048  eV     1   --> A''            
     e( 14 - 14) =    -28.07907  eV     1   --> A'             
     e( 15 - 15) =    -28.03336  eV     1   --> A'             
     e( 16 - 16) =    -28.03270  eV     1   --> A''            
     e( 17 - 17) =     -8.72807  eV     1   --> A'             
     e( 18 - 18) =     -7.70003  eV     1   --> A''            
     e( 19 - 19) =     -7.65481  eV     1   --> A'             
     e( 20 - 20) =     -7.58106  eV     1   --> A''            
     e( 21 - 21) =     -7.35055  eV     1   --> A''            
     e( 22 - 22) =     -7.24274  eV     1   --> A'             
     e( 23 - 23) =     -7.21820  eV     1   --> A''            
     e( 24 - 24) =     -7.16744  eV     1   --> A'             
     e( 25 - 25) =      3.91965  eV     1   --> A''            
     e( 26 - 26) =      4.18551  eV     1   --> A'             
     e( 27 - 27) =      4.45268  eV     1   --> A''            
     e( 28 - 28) =      4.64376  eV     1   --> A''            
     e( 29 - 29) =      4.66751  eV     1   --> A'             
     e( 30 - 30) =      4.88372  eV     1   --> A'             
     e( 31 - 31) =      4.95207  eV     1   --> A''            
     e( 32 - 32) =      5.67692  eV     1   --> A''            
     e( 33 - 33) =      5.78051  eV     1   --> A'             
     e( 34 - 34) =      5.98990  eV     1   --> A'             
     e( 35 - 35) =      6.03840  eV     1   --> A''            
     e( 36 - 36) =      6.08882  eV     1   --> A'             
     e( 37 - 37) =      6.45828  eV     1   --> A''            
     e( 38 - 38) =      6.52142  eV     1   --> A'             
     e( 39 - 39) =      6.61616  eV     1   --> A''            
     e( 40 - 40) =      7.23058  eV     1   --> A''            
     e( 41 - 41) =      7.23671  eV     1   --> A'             
     e( 42 - 42) =      7.39682  eV     1   --> A''            
     e( 43 - 43) =      7.58532  eV     1   --> A'             
     e( 44 - 44) =      7.77216  eV     1   --> A'             
     e( 45 - 45) =      7.77720  eV     1   --> A''            
     e( 46 - 46) =      8.24524  eV     1   --> A'             
     e( 47 - 47) =      8.49722  eV     1   --> A''            
     e( 48 - 48) =      9.24965  eV     1   --> A'             
     e( 49 - 49) =     10.88812  eV     1   --> A'             
     e( 50 - 50) =     10.94100  eV     1   --> A''            
     e( 51 - 51) =     11.53002  eV     1   --> A'             
     e( 52 - 52) =     11.57894  eV     1   --> A''            
     e( 53 - 53) =     11.81056  eV     1   --> A''            
     e( 54 - 54) =     11.96842  eV     1   --> A'             
     e( 55 - 55) =     11.98917  eV     1   --> A'             
     e( 56 - 56) =     12.50247  eV     1   --> A'             
     e( 57 - 57) =     12.54033  eV     1   --> A''            
     e( 58 - 58) =     12.61426  eV     1   --> A''            
     e( 59 - 59) =     12.74502  eV     1   --> A'             
     e( 60 - 60) =     13.12190  eV     1   --> A''            
     e( 61 - 61) =     13.70569  eV     1   --> A''            
     e( 62 - 62) =     14.07458  eV     1   --> A'             
     e( 63 - 63) =     14.19936  eV     1   --> A''            
     e( 64 - 64) =     14.70255  eV     1   --> A'             
     e( 65 - 65) =     14.83431  eV     1   --> A''            
     e( 66 - 66) =     15.38812  eV     1   --> A'             
     e( 67 - 67) =     15.52487  eV     1   --> A''            
     e( 68 - 68) =     15.85419  eV     1   --> A'             
     e( 69 - 69) =     18.76010  eV     1   --> A'             
     e( 70 - 70) =     21.33033  eV     1   --> A''            

 **************************************************************************

 **************************************************************************

                    xk=(   0.00000,   0.38072,   0.00000  )

     Band symmetry, C_s (m)     point group:

     e(  1 -  1) =    -54.47778  eV     1   --> A'             
     e(  2 -  2) =    -54.47201  eV     1   --> A''            
     e(  3 -  3) =    -54.42836  eV     1   --> A'             
     e(  4 -  4) =    -54.42807  eV     1   --> A''            
     e(  5 -  5) =    -28.59955  eV     1   --> A''            
     e(  6 -  6) =    -28.59703  eV     1   --> A'             
     e(  7 -  7) =    -28.58771  eV     1   --> A'             
     e(  8 -  8) =    -28.56695  eV     1   --> A''            
     e(  9 -  9) =    -28.49568  eV     1   --> A''            
     e( 10 - 10) =    -28.47312  eV     1   --> A'             
     e( 11 - 11) =    -28.13409  eV     1   --> A''            
     e( 12 - 12) =    -28.13207  eV     1   --> A'             
     e( 13 - 13) =    -28.09012  eV     1   --> A''            
     e( 14 - 14) =    -28.07975  eV     1   --> A'             
     e( 15 - 15) =    -28.03329  eV     1   --> A'             
     e( 16 - 16) =    -28.03270  eV     1   --> A''            
     e( 17 - 17) =     -8.67919  eV     1   --> A'             
     e( 18 - 18) =     -7.72357  eV     1   --> A''            
     e( 19 - 19) =     -7.64219  eV     1   --> A'             
     e( 20 - 20) =     -7.59151  eV     1   --> A''            
     e( 21 - 21) =     -7.35996  eV     1   --> A''            
     e( 22 - 22) =     -7.25890  eV     1   --> A'             
     e( 23 - 23) =     -7.22861  eV     1   --> A''            
     e( 24 - 24) =     -7.17594  eV     1   --> A'             
     e( 25 - 25) =      3.98977  eV     1   --> A''            
     e( 26 - 26) =      4.21888  eV     1   --> A'             
     e( 27 - 27) =      4.49360  eV     1   --> A''            
     e( 28 - 28) =      4.69743  eV     1   --> A'             
     e( 29 - 29) =      4.71686  eV     1   --> A''            
     e( 30 - 30) =      4.93167  eV     1   --> A'             
     e( 31 - 31) =      4.99931  eV     1   --> A''            
     e( 32 - 32) =      5.66825  eV     1   --> A''            
     e( 33 - 33) =      5.78328  eV     1   --> A'             
     e( 34 - 34) =      5.93496  eV     1   --> A'             
     e( 35 - 35) =      6.03432  eV     1   --> A''            
     e( 36 - 36) =      6.04969  eV     1   --> A'             
     e( 37 - 37) =      6.43069  eV     1   --> A''            
     e( 38 - 38) =      6.48435  eV     1   --> A'             
     e( 39 - 39) =      6.56141  eV     1   --> A''            
     e( 40 - 40) =      7.16324  eV     1   --> A'             
     e( 41 - 41) =      7.22076  eV     1   --> A''            
     e( 42 - 42) =      7.35226  eV     1   --> A''            
     e( 43 - 43) =      7.43753  eV     1   --> A'             
     e( 44 - 44) =      7.79246  eV     1   --> A'             
     e( 45 - 45) =      7.80110  eV     1   --> A''            
     e( 46 - 46) =      8.18729  eV     1   --> A'             
     e( 47 - 47) =      8.49601  eV     1   --> A''            
     e( 48 - 48) =      9.19265  eV     1   --> A'             
     e( 49 - 49) =     10.92172  eV     1   --> A'             
     e( 50 - 50) =     10.98116  eV     1   --> A''            
     e( 51 - 51) =     11.59114  eV     1   --> A'             
     e( 52 - 52) =     11.62713  eV     1   --> A''            
     e( 53 - 53) =     11.86581  eV     1   --> A''            
     e( 54 - 54) =     11.98914  eV     1   --> A'             
     e( 55 - 55) =     12.04079  eV     1   --> A'             
     e( 56 - 56) =     12.51667  eV     1   --> A''            
     e( 57 - 57) =     12.52123  eV     1   --> A'             
     e( 58 - 58) =     12.61593  eV     1   --> A''            
     e( 59 - 59) =     12.73385  eV     1   --> A'             
     e( 60 - 60) =     13.07569  eV     1   --> A''            
     e( 61 - 61) =     13.77216  eV     1   --> A''            
     e( 62 - 62) =     14.11621  eV     1   --> A'             
     e( 63 - 63) =     14.27177  eV     1   --> A''            
     e( 64 - 64) =     14.67361  eV     1   --> A'             
     e( 65 - 65) =     14.80685  eV     1   --> A''            
     e( 66 - 66) =     15.30615  eV     1   --> A'             
     e( 67 - 67) =     15.44149  eV     1   --> A''            
     e( 68 - 68) =     15.78145  eV     1   --> A'             
     e( 69 - 69) =     18.90619  eV     1   --> A'             
     e( 70 - 70) =     21.24297  eV     1   --> A''            

 **************************************************************************

 **************************************************************************

                    xk=(   0.00000,   0.41245,   0.00000  )

     Band symmetry, C_s (m)     point group:

     e(  1 -  1) =    -54.47746  eV     1   --> A'             
     e(  2 -  2) =    -54.47233  eV     1   --> A''            
     e(  3 -  3) =    -54.42835  eV     1   --> A'             
     e(  4 -  4) =    -54.42809  eV     1   --> A''            
     e(  5 -  5) =    -28.59925  eV     1   --> A''            
     e(  6 -  6) =    -28.59697  eV     1   --> A'             
     e(  7 -  7) =    -28.58601  eV     1   --> A'             
     e(  8 -  8) =    -28.56727  eV     1   --> A''            
     e(  9 -  9) =    -28.49517  eV     1   --> A''            
     e( 10 - 10) =    -28.47484  eV     1   --> A'             
     e( 11 - 11) =    -28.13418  eV     1   --> A''            
     e( 12 - 12) =    -28.13244  eV     1   --> A'             
     e( 13 - 13) =    -28.08972  eV     1   --> A''            
     e( 14 - 14) =    -28.08045  eV     1   --> A'             
     e( 15 - 15) =    -28.03323  eV     1   --> A'             
     e( 16 - 16) =    -28.03271  eV     1   --> A''            
     e( 17 - 17) =     -8.62706  eV     1   --> A'             
     e( 18 - 18) =     -7.76305  eV     1   --> A''            
     e( 19 - 19) =     -7.62912  eV     1   --> A'             
     e( 20 - 20) =     -7.59198  eV     1   --> A''            
     e( 21 - 21) =     -7.36666  eV     1   --> A''            
     e( 22 - 22) =     -7.27550  eV     1   --> A'             
     e( 23 - 23) =     -7.23778  eV     1   --> A''            
     e( 24 - 24) =     -7.18474  eV     1   --> A'             
     e( 25 - 25) =      4.06046  eV     1   --> A''            
     e( 26 - 26) =      4.25344  eV     1   --> A'             
     e( 27 - 27) =      4.52668  eV     1   --> A''            
     e( 28 - 28) =      4.70988  eV     1   --> A'             
     e( 29 - 29) =      4.78927  eV     1   --> A''            
     e( 30 - 30) =      4.99954  eV     1   --> A'             
     e( 31 - 31) =      5.06674  eV     1   --> A''            
     e( 32 - 32) =      5.65848  eV     1   --> A''            
     e( 33 - 33) =      5.78526  eV     1   --> A'             
     e( 34 - 34) =      5.85634  eV     1   --> A'             
     e( 35 - 35) =      6.02581  eV     1   --> A''            
     e( 36 - 36) =      6.03405  eV     1   --> A'             
     e( 37 - 37) =      6.40480  eV     1   --> A''            
     e( 38 - 38) =      6.44562  eV     1   --> A'             
     e( 39 - 39) =      6.50499  eV     1   --> A''            
     e( 40 - 40) =      7.09076  eV     1   --> A'             
     e( 41 - 41) =      7.18163  eV     1   --> A''            
     e( 42 - 42) =      7.28699  eV     1   --> A'             
     e( 43 - 43) =      7.33939  eV     1   --> A''            
     e( 44 - 44) =      7.80998  eV     1   --> A'             
     e( 45 - 45) =      7.82932  eV     1   --> A''            
     e( 46 - 46) =      8.13142  eV     1   --> A'             
     e( 47 - 47) =      8.50175  eV     1   --> A''            
     e( 48 - 48) =      9.13370  eV     1   --> A'             
     e( 49 - 49) =     10.95425  eV     1   --> A'             
     e( 50 - 50) =     11.01676  eV     1   --> A''            
     e( 51 - 51) =     11.65457  eV     1   --> A'             
     e( 52 - 52) =     11.67432  eV     1   --> A''            
     e( 53 - 53) =     11.92011  eV     1   --> A''            
     e( 54 - 54) =     12.00510  eV     1   --> A'             
     e( 55 - 55) =     12.08825  eV     1   --> A'             
     e( 56 - 56) =     12.48855  eV     1   --> A''            
     e( 57 - 57) =     12.54085  eV     1   --> A'             
     e( 58 - 58) =     12.61870  eV     1   --> A''            
     e( 59 - 59) =     12.72366  eV     1   --> A'             
     e( 60 - 60) =     13.02889  eV     1   --> A''            
     e( 61 - 61) =     13.84188  eV     1   --> A''            
     e( 62 - 62) =     14.15890  eV     1   --> A'             
     e( 63 - 63) =     14.34710  eV     1   --> A''            
     e( 64 - 64) =     14.64877  eV     1   --> A'             
     e( 65 - 65) =     14.78193  eV     1   --> A''            
     e( 66 - 66) =     15.22175  eV     1   --> A'             
     e( 67 - 67) =     15.35649  eV     1   --> A''            
     e( 68 - 68) =     15.70343  eV     1   --> A'             
     e( 69 - 69) =     19.05842  eV     1   --> A'             
     e( 70 - 70) =     21.14405  eV     1   --> A''            

 **************************************************************************

 **************************************************************************

                    xk=(   0.00000,   0.44418,   0.00000  )

     Band symmetry, C_s (m)     point group:

     e(  1 -  1) =    -54.47712  eV     1   --> A'             
     e(  2 -  2) =    -54.47266  eV     1   --> A''            
     e(  3 -  3) =    -54.42833  eV     1   --> A'             
     e(  4 -  4) =    -54.42811  eV     1   --> A''            
     e(  5 -  5) =    -28.59895  eV     1   --> A''            
     e(  6 -  6) =    -28.59694  eV     1   --> A'             
     e(  7 -  7) =    -28.58427  eV     1   --> A'             
     e(  8 -  8) =    -28.56774  eV     1   --> A''            
     e(  9 -  9) =    -28.49450  eV     1   --> A''            
     e( 10 - 10) =    -28.47661  eV     1   --> A'             
     e( 11 - 11) =    -28.13426  eV     1   --> A''            
     e( 12 - 12) =    -28.13280  eV     1   --> A'             
     e( 13 - 13) =    -28.08926  eV     1   --> A''            
     e( 14 - 14) =    -28.08118  eV     1   --> A'             
     e( 15 - 15) =    -28.03317  eV     1   --> A'             
     e( 16 - 16) =    -28.03272  eV     1   --> A''            
     e( 17 - 17) =     -8.57191  eV     1   --> A'             
     e( 18 - 18) =     -7.81350  eV     1   --> A''            
     e( 19 - 19) =     -7.61585  eV     1   --> A'             
     e( 20 - 20) =     -7.58639  eV     1   --> A''            
     e( 21 - 21) =     -7.37171  eV     1   --> A''            
     e( 22 - 22) =     -7.29231  eV     1   --> A'             
     e( 23 - 23) =     -7.24524  eV     1   --> A''            
     e( 24 - 24) =     -7.19373  eV     1   --> A'             
     e( 25 - 25) =      4.13043  eV     1   --> A''            
     e( 26 - 26) =      4.28804  eV     1   --> A'             
     e( 27 - 27) =      4.55112  eV     1   --> A''            
     e( 28 - 28) =      4.71167  eV     1   --> A'             
     e( 29 - 29) =      4.86145  eV     1   --> A''            
     e( 30 - 30) =      5.07916  eV     1   --> A'             
     e( 31 - 31) =      5.15286  eV     1   --> A''            
     e( 32 - 32) =      5.64792  eV     1   --> A''            
     e( 33 - 33) =      5.77026  eV     1   --> A'             
     e( 34 - 34) =      5.78751  eV     1   --> A'             
     e( 35 - 35) =      6.01390  eV     1   --> A''            
     e( 36 - 36) =      6.02573  eV     1   --> A'             
     e( 37 - 37) =      6.37480  eV     1   --> A''            
     e( 38 - 38) =      6.40469  eV     1   --> A'             
     e( 39 - 39) =      6.45325  eV     1   --> A''            
     e( 40 - 40) =      7.01952  eV     1   --> A'             
     e( 41 - 41) =      7.12304  eV     1   --> A''            
     e( 42 - 42) =      7.13994  eV     1   --> A'             
     e( 43 - 43) =      7.35332  eV     1   --> A''            
     e( 44 - 44) =      7.81993  eV     1   --> A'             
     e( 45 - 45) =      7.85839  eV     1   --> A''            
     e( 46 - 46) =      8.08060  eV     1   --> A'             
     e( 47 - 47) =      8.51468  eV     1   --> A''            
     e( 48 - 48) =      9.07348  eV     1   --> A'             
     e( 49 - 49) =     10.98505  eV     1   --> A'             
     e( 50 - 50) =     11.04693  eV     1   --> A''            
     e( 51 - 51) =     11.71934  eV     1   --> A'             
     e( 52 - 52) =     11.72022  eV     1   --> A''            
     e( 53 - 53) =     11.97235  eV     1   --> A''            
     e( 54 - 54) =     12.01657  eV     1   --> A'             
     e( 55 - 55) =     12.13000  eV     1   --> A'             
     e( 56 - 56) =     12.45598  eV     1   --> A''            
     e( 57 - 57) =     12.56065  eV     1   --> A'             
     e( 58 - 58) =     12.62200  eV     1   --> A''            
     e( 59 - 59) =     12.71517  eV     1   --> A'             
     e( 60 - 60) =     12.98261  eV     1   --> A''            
     e( 61 - 61) =     13.91365  eV     1   --> A''            
     e( 62 - 62) =     14.20090  eV     1   --> A'             
     e( 63 - 63) =     14.42308  eV     1   --> A''            
     e( 64 - 64) =     14.63033  eV     1   --> A'             
     e( 65 - 65) =     14.76260  eV     1   --> A''            
     e( 66 - 66) =     15.13599  eV     1   --> A'             
     e( 67 - 67) =     15.27081  eV     1   --> A''            
     e( 68 - 68) =     15.62067  eV     1   --> A'             
     e( 69 - 69) =     19.21551  eV     1   --> A'             
     e( 70 - 70) =     21.03403  eV     1   --> A''            

 **************************************************************************

 **************************************************************************

                    xk=(   0.00000,   0.47590,   0.00000  )

     Band symmetry, C_s (m)     point group:

     e(  1 -  1) =    -54.47677  eV     1   --> A'             
     e(  2 -  2) =    -54.47301  eV     1   --> A''            
     e(  3 -  3) =    -54.42832  eV     1   --> A'             
     e(  4 -  4) =    -54.42813  eV     1   --> A''            
     e(  5 -  5) =    -28.59865  eV     1   --> A''            
     e(  6 -  6) =    -28.59694  eV     1   --> A'             
     e(  7 -  7) =    -28.58251  eV     1   --> A'             
     e(  8 -  8) =    -28.56839  eV     1   --> A''            
     e(  9 -  9) =    -28.49367  eV     1   --> A''            
     e( 10 - 10) =    -28.47842  eV     1   --> A'             
     e( 11 - 11) =    -28.13432  eV     1   --> A''            
     e( 12 - 12) =    -28.13313  eV     1   --> A'             
     e( 13 - 13) =    -28.08876  eV     1   --> A''            
     e( 14 - 14) =    -28.08192  eV     1   --> A'             
     e( 15 - 15) =    -28.03311  eV     1   --> A'             
     e( 16 - 16) =    -28.03273  eV     1   --> A''            
     e( 17 - 17) =     -8.51403  eV     1   --> A'             
     e( 18 - 18) =     -7.87069  eV     1   --> A''            
     e( 19 - 19) =     -7.60267  eV     1   --> A'             
     e( 20 - 20) =     -7.57818  eV     1   --> A''            
     e( 21 - 21) =     -7.37582  eV     1   --> A''            
     e( 22 - 22) =     -7.30901  eV     1   --> A'             
     e( 23 - 23) =     -7.25056  eV     1   --> A''            
     e( 24 - 24) =     -7.20278  eV     1   --> A'             
     e( 25 - 25) =      4.19807  eV     1   --> A''            
     e( 26 - 26) =      4.32135  eV     1   --> A'             
     e( 27 - 27) =      4.56819  eV     1   --> A''            
     e( 28 - 28) =      4.70747  eV     1   --> A'             
     e( 29 - 29) =      4.93441  eV     1   --> A''            
     e( 30 - 30) =      5.16380  eV     1   --> A'             
     e( 31 - 31) =      5.25244  eV     1   --> A''            
     e( 32 - 32) =      5.63808  eV     1   --> A''            
     e( 33 - 33) =      5.68584  eV     1   --> A'             
     e( 34 - 34) =      5.78717  eV     1   --> A'             
     e( 35 - 35) =      6.00007  eV     1   --> A''            
     e( 36 - 36) =      6.02012  eV     1   --> A'             
     e( 37 - 37) =      6.32769  eV     1   --> A''            
     e( 38 - 38) =      6.36038  eV     1   --> A'             
     e( 39 - 39) =      6.41970  eV     1   --> A''            
     e( 40 - 40) =      6.93494  eV     1   --> A'             
     e( 41 - 41) =      7.01706  eV     1   --> A'             
     e( 42 - 42) =      7.06187  eV     1   --> A''            
     e( 43 - 43) =      7.38049  eV     1   --> A''            
     e( 44 - 44) =      7.81681  eV     1   --> A'             
     e( 45 - 45) =      7.88634  eV     1   --> A''            
     e( 46 - 46) =      8.03955  eV     1   --> A'             
     e( 47 - 47) =      8.53470  eV     1   --> A''            
     e( 48 - 48) =      9.01271  eV     1   --> A'             
     e( 49 - 49) =     11.01350  eV     1   --> A'             
     e( 50 - 50) =     11.07119  eV     1   --> A''            
     e( 51 - 51) =     11.76436  eV     1   --> A''            
     e( 52 - 52) =     11.78418  eV     1   --> A'             
     e( 53 - 53) =     12.02139  eV     1   --> A''            
     e( 54 - 54) =     12.02390  eV     1   --> A'             
     e( 55 - 55) =     12.16492  eV     1   --> A'             
     e( 56 - 56) =     12.41888  eV     1   --> A''            
     e( 57 - 57) =     12.57974  eV     1   --> A'             
     e( 58 - 58) =     12.62545  eV     1   --> A''            
     e( 59 - 59) =     12.70935  eV     1   --> A'             
     e( 60 - 60) =     12.93782  eV     1   --> A''            
     e( 61 - 61) =     13.98613  eV     1   --> A''            
     e( 62 - 62) =     14.23952  eV     1   --> A'             
     e( 63 - 63) =     14.49496  eV     1   --> A''            
     e( 64 - 64) =     14.62128  eV     1   --> A'             
     e( 65 - 65) =     14.75464  eV     1   --> A''            
     e( 66 - 66) =     15.05007  eV     1   --> A'             
     e( 67 - 67) =     15.18535  eV     1   --> A''            
     e( 68 - 68) =     15.53377  eV     1   --> A'             
     e( 69 - 69) =     19.37622  eV     1   --> A'             
     e( 70 - 70) =     20.91362  eV     1   --> A''            

 **************************************************************************

 **************************************************************************

                    xk=(   0.00000,   0.50763,   0.00000  )

     Band symmetry, C_s (m)     point group:

     e(  1 -  1) =    -54.47641  eV     1   --> A'             
     e(  2 -  2) =    -54.47337  eV     1   --> A''            
     e(  3 -  3) =    -54.42830  eV     1   --> A'             
     e(  4 -  4) =    -54.42815  eV     1   --> A''            
[...]
     e( 36 - 36) =      5.96513  eV     1   --> A'             
     e( 37 - 37) =      6.33096  eV     1   --> A''            
     e( 38 - 38) =      6.64208  eV     1   --> A'             
     e( 39 - 39) =      6.81104  eV     1   --> A''            
     e( 40 - 40) =      6.85916  eV     1   --> A'             
     e( 41 - 41) =      7.15939  eV     1   --> A'             
     e( 42 - 42) =      7.22155  eV     1   --> A''            
     e( 43 - 43) =      7.73204  eV     1   --> A'             
     e( 44 - 44) =      7.79293  eV     1   --> A''            
     e( 45 - 45) =      7.90634  eV     1   --> A'             
     e( 46 - 46) =      8.46979  eV     1   --> A''            
     e( 47 - 47) =      8.62425  eV     1   --> A'             
     e( 48 - 48) =      9.00933  eV     1   --> A'             
     e( 49 - 49) =     11.06512  eV     1   --> A'             
     e( 50 - 50) =     11.07386  eV     1   --> A''            
     e( 51 - 51) =     11.43325  eV     1   --> A'             
     e( 52 - 52) =     11.58592  eV     1   --> A''            
     e( 53 - 53) =     11.76819  eV     1   --> A'             
     e( 54 - 54) =     12.08765  eV     1   --> A''            
     e( 55 - 55) =     12.08801  eV     1   --> A'             
     e( 56 - 56) =     12.31468  eV     1   --> A''            
     e( 57 - 57) =     12.55493  eV     1   --> A'             
     e( 58 - 58) =     12.69096  eV     1   --> A'             
     e( 59 - 59) =     12.73314  eV     1   --> A''            
     e( 60 - 60) =     12.97227  eV     1   --> A''            
     e( 61 - 61) =     13.69877  eV     1   --> A'             
     e( 62 - 62) =     13.73698  eV     1   --> A''            
     e( 63 - 63) =     14.17302  eV     1   --> A''            
     e( 64 - 64) =     14.61467  eV     1   --> A'             
     e( 65 - 65) =     14.82279  eV     1   --> A''            
     e( 66 - 66) =     15.17596  eV     1   --> A''            
     e( 67 - 67) =     15.61557  eV     1   --> A'             
     e( 68 - 68) =     15.95217  eV     1   --> A'             
     e( 69 - 69) =     19.65316  eV     1   --> A'             
     e( 70 - 70) =     20.37497  eV     1   --> A'             

 **************************************************************************

 **************************************************************************

                    xk=(   0.00000,   0.30431,   0.47500  )

     Band symmetry, C_s (m)     point group:

     e(  1 -  1) =    -54.47284  eV     1   --> A'             
     e(  2 -  2) =    -54.46849  eV     1   --> A''            
     e(  3 -  3) =    -54.43550  eV     1   --> A'             
     e(  4 -  4) =    -54.42948  eV     1   --> A''            
     e(  5 -  5) =    -28.60225  eV     1   --> A''            
     e(  6 -  6) =    -28.58789  eV     1   --> A'             
     e(  7 -  7) =    -28.58611  eV     1   --> A'             
     e(  8 -  8) =    -28.57081  eV     1   --> A''            
     e(  9 -  9) =    -28.44546  eV     1   --> A''            
     e( 10 - 10) =    -28.41364  eV     1   --> A'             
     e( 11 - 11) =    -28.17108  eV     1   --> A''            
     e( 12 - 12) =    -28.16209  eV     1   --> A'             
     e( 13 - 13) =    -28.10504  eV     1   --> A'             
     e( 14 - 14) =    -28.09594  eV     1   --> A''            
     e( 15 - 15) =    -28.04667  eV     1   --> A'             
     e( 16 - 16) =    -28.04087  eV     1   --> A''            
     e( 17 - 17) =     -8.35157  eV     1   --> A'             
     e( 18 - 18) =     -8.23978  eV     1   --> A'             
     e( 19 - 19) =     -7.55290  eV     1   --> A''            
     e( 20 - 20) =     -7.36057  eV     1   --> A''            
     e( 21 - 21) =     -7.33488  eV     1   --> A''            
     e( 22 - 22) =     -7.30835  eV     1   --> A''            
     e( 23 - 23) =     -7.30277  eV     1   --> A'             
     e( 24 - 24) =     -7.20556  eV     1   --> A'             
     e( 25 - 25) =      4.14803  eV     1   --> A''            
     e( 26 - 26) =      4.51716  eV     1   --> A''            
     e( 27 - 27) =      4.55450  eV     1   --> A'             
     e( 28 - 28) =      4.67958  eV     1   --> A'             
     e( 29 - 29) =      4.73231  eV     1   --> A''            
     e( 30 - 30) =      4.94343  eV     1   --> A''            
     e( 31 - 31) =      5.10364  eV     1   --> A'             
     e( 32 - 32) =      5.30137  eV     1   --> A'             
     e( 33 - 33) =      5.65787  eV     1   --> A''            
     e( 34 - 34) =      5.70529  eV     1   --> A''            
     e( 35 - 35) =      5.87188  eV     1   --> A''            
     e( 36 - 36) =      6.06261  eV     1   --> A'             
     e( 37 - 37) =      6.27596  eV     1   --> A''            
     e( 38 - 38) =      6.53801  eV     1   --> A'             
     e( 39 - 39) =      6.82683  eV     1   --> A''            
     e( 40 - 40) =      6.86370  eV     1   --> A'             
     e( 41 - 41) =      7.15741  eV     1   --> A'             
     e( 42 - 42) =      7.20963  eV     1   --> A''            
     e( 43 - 43) =      7.75312  eV     1   --> A'             
     e( 44 - 44) =      7.79240  eV     1   --> A''            
     e( 45 - 45) =      7.88048  eV     1   --> A'             
     e( 46 - 46) =      8.46640  eV     1   --> A''            
     e( 47 - 47) =      8.64871  eV     1   --> A'             
     e( 48 - 48) =      8.98410  eV     1   --> A'             
     e( 49 - 49) =     11.07425  eV     1   --> A'             
     e( 50 - 50) =     11.08415  eV     1   --> A''            
     e( 51 - 51) =     11.43081  eV     1   --> A'             
     e( 52 - 52) =     11.59579  eV     1   --> A''            
     e( 53 - 53) =     11.77654  eV     1   --> A'             
     e( 54 - 54) =     12.08935  eV     1   --> A''            
     e( 55 - 55) =     12.10104  eV     1   --> A'             
     e( 56 - 56) =     12.31462  eV     1   --> A''            
     e( 57 - 57) =     12.55513  eV     1   --> A'             
     e( 58 - 58) =     12.68146  eV     1   --> A'             
     e( 59 - 59) =     12.75226  eV     1   --> A''            
     e( 60 - 60) =     12.94788  eV     1   --> A''            
     e( 61 - 61) =     13.70099  eV     1   --> A'             
     e( 62 - 62) =     13.73568  eV     1   --> A''            
     e( 63 - 63) =     14.19449  eV     1   --> A''            
     e( 64 - 64) =     14.61182  eV     1   --> A'             
     e( 65 - 65) =     14.82845  eV     1   --> A''            
     e( 66 - 66) =     15.14357  eV     1   --> A''            
     e( 67 - 67) =     15.60336  eV     1   --> A'             
     e( 68 - 68) =     15.94766  eV     1   --> A'             
     e( 69 - 69) =     19.80355  eV     1   --> A'             
     e( 70 - 70) =     20.22361  eV     1   --> A'             

 **************************************************************************

 **************************************************************************

                    xk=(   0.00000,   0.32033,   0.50000  )

     zone border point and non-symmorphic group 
     symmetry decomposition not available

 **************************************************************************

 **************************************************************************

                    xk=(   0.03169,   0.32033,   0.50000  )

     zone border point and non-symmorphic group 
     symmetry decomposition not available

 **************************************************************************

 **************************************************************************

                    xk=(   0.06338,   0.32033,   0.50000  )

     zone border point and non-symmorphic group 
     symmetry decomposition not available

 **************************************************************************

 **************************************************************************

                    xk=(   0.09506,   0.32033,   0.50000  )

     zone border point and non-symmorphic group 
     symmetry decomposition not available

 **************************************************************************

 **************************************************************************

                    xk=(   0.12675,   0.32033,   0.50000  )

     zone border point and non-symmorphic group 
     symmetry decomposition not available

 **************************************************************************

 **************************************************************************

                    xk=(   0.15844,   0.32033,   0.50000  )

     zone border point and non-symmorphic group 
     symmetry decomposition not available

 **************************************************************************

 **************************************************************************

                    xk=(   0.19013,   0.32033,   0.50000  )

     zone border point and non-symmorphic group 
     symmetry decomposition not available

 **************************************************************************

 **************************************************************************

                    xk=(   0.22181,   0.32033,   0.50000  )

     zone border point and non-symmorphic group 
     symmetry decomposition not available

 **************************************************************************

 **************************************************************************

                    xk=(   0.25350,   0.32033,   0.50000  )

     zone border point and non-symmorphic group 
     symmetry decomposition not available

 **************************************************************************

 **************************************************************************

                    xk=(   0.28519,   0.32033,   0.50000  )

     zone border point and non-symmorphic group 
     symmetry decomposition not available

 **************************************************************************

 **************************************************************************

                    xk=(   0.31688,   0.32033,   0.50000  )

     zone border point and non-symmorphic group 
     symmetry decomposition not available

 **************************************************************************

 **************************************************************************

                    xk=(   0.34856,   0.32033,   0.50000  )

     zone border point and non-symmorphic group 
     symmetry decomposition not available

 **************************************************************************

 **************************************************************************

                    xk=(   0.38025,   0.32033,   0.50000  )

     zone border point and non-symmorphic group 
     symmetry decomposition not available

 **************************************************************************

 **************************************************************************

                    xk=(   0.41194,   0.32033,   0.50000  )

     zone border point and non-symmorphic group 
     symmetry decomposition not available

 **************************************************************************

 **************************************************************************

                    xk=(   0.44363,   0.32033,   0.50000  )

     zone border point and non-symmorphic group 
     symmetry decomposition not available

 **************************************************************************

 **************************************************************************

                    xk=(   0.47532,   0.32033,   0.50000  )

     zone border point and non-symmorphic group 
     symmetry decomposition not available

 **************************************************************************

 **************************************************************************

                    xk=(   0.50700,   0.32033,   0.50000  )

     zone border point and non-symmorphic group 
     symmetry decomposition not available

 **************************************************************************

 **************************************************************************

                    xk=(   0.53869,   0.32033,   0.50000  )

     zone border point and non-symmorphic group 
     symmetry decomposition not available

 **************************************************************************

 **************************************************************************

                    xk=(   0.57038,   0.32033,   0.50000  )

     zone border point and non-symmorphic group 
     symmetry decomposition not available

 **************************************************************************

 **************************************************************************

                    xk=(   0.60207,   0.32033,   0.50000  )

     zone border point and non-symmorphic group 
     symmetry decomposition not available

 **************************************************************************

 **************************************************************************

                    xk=(   0.63375,   0.32033,   0.50000  )

     zone border point and non-symmorphic group 
     symmetry decomposition not available

 **************************************************************************

 **************************************************************************

                    xk=(   0.63375,   0.30431,   0.47500  )

     zone border point and non-symmorphic group 
     symmetry decomposition not available

 **************************************************************************

 **************************************************************************

                    xk=(   0.63375,   0.28830,   0.45000  )

     zone border point and non-symmorphic group 
     symmetry decomposition not available

 **************************************************************************

 **************************************************************************

                    xk=(   0.63375,   0.27228,   0.42500  )

     zone border point and non-symmorphic group 
     symmetry decomposition not available

 **************************************************************************

 **************************************************************************

                    xk=(   0.63375,   0.25626,   0.40000  )

     zone border point and non-symmorphic group 
     symmetry decomposition not available

 **************************************************************************

 **************************************************************************

                    xk=(   0.63375,   0.24025,   0.37500  )

     zone border point and non-symmorphic group 
     symmetry decomposition not available

 **************************************************************************

 **************************************************************************

                    xk=(   0.63375,   0.22423,   0.35000  )

     zone border point and non-symmorphic group 
     symmetry decomposition not available

 **************************************************************************

 **************************************************************************

                    xk=(   0.63375,   0.20821,   0.32500  )

     zone border point and non-symmorphic group 
     symmetry decomposition not available

 **************************************************************************

 **************************************************************************

                    xk=(   0.63375,   0.19220,   0.30000  )

     zone border point and non-symmorphic group 
     symmetry decomposition not available

 **************************************************************************

 **************************************************************************

                    xk=(   0.63375,   0.17618,   0.27500  )

     zone border point and non-symmorphic group 
     symmetry decomposition not available

 **************************************************************************

 **************************************************************************

                    xk=(   0.63375,   0.16017,   0.25000  )

     zone border point and non-symmorphic group 
     symmetry decomposition not available

 **************************************************************************

 **************************************************************************

                    xk=(   0.63375,   0.14415,   0.22500  )

     zone border point and non-symmorphic group 
     symmetry decomposition not available

 **************************************************************************

 **************************************************************************

                    xk=(   0.63375,   0.12813,   0.20000  )

     zone border point and non-symmorphic group 
     symmetry decomposition not available

 **************************************************************************

 **************************************************************************

                    xk=(   0.63375,   0.11212,   0.17500  )

     zone border point and non-symmorphic group 
     symmetry decomposition not available

 **************************************************************************

 **************************************************************************

                    xk=(   0.63375,   0.09610,   0.15000  )

     zone border point and non-symmorphic group 
     symmetry decomposition not available

 **************************************************************************

 **************************************************************************

                    xk=(   0.63375,   0.08008,   0.12500  )

     zone border point and non-symmorphic group 
     symmetry decomposition not available

 **************************************************************************

 **************************************************************************

                    xk=(   0.63375,   0.06407,   0.10000  )

     zone border point and non-symmorphic group 
     symmetry decomposition not available

 **************************************************************************

 **************************************************************************

                    xk=(   0.63375,   0.04805,   0.07500  )

     zone border point and non-symmorphic group 
     symmetry decomposition not available

 **************************************************************************

 **************************************************************************

                    xk=(   0.63375,   0.03203,   0.05000  )

     zone border point and non-symmorphic group 
     symmetry decomposition not available

 **************************************************************************

 **************************************************************************

                    xk=(   0.63375,   0.01602,   0.02500  )

     zone border point and non-symmorphic group 
     symmetry decomposition not available

 **************************************************************************

 **************************************************************************

                    xk=(   0.63375,   0.00000,   0.00000  )

     zone border point and non-symmorphic group 
     symmetry decomposition not available

 **************************************************************************

     BANDS        :   1m31.51s CPU   1m37.26s WALL


   This run was terminated on:  11: 8:32  14Sep2023            

=------------------------------------------------------------------------------=
   JOB DONE.
=------------------------------------------------------------------------------=
