
     Program PWSCF v.7.0 starts on 14Sep2023 at  9:19:51 

     This program is part of the open-source Quantum ESPRESSO suite
     for quantum simulation of materials; please cite
         "P. Giannozzi et al., J. Phys.:Condens. Matter 21 395502 (2009);
         "P. Giannozzi et al., J. Phys.:Condens. Matter 29 465901 (2017);
         "P. Giannozzi et al., J. Chem. Phys. 152 154105 (2020);
          URL http://www.quantum-espresso.org", 
     in publications or presentations arising from this work. More details at
     http://www.quantum-espresso.org/quote

     Parallel version (MPI), running on    36 processors

     MPI processes distributed on     1 nodes
     R & G space division:  proc/nbgrp/npool/nimage =      36
     168466 MiB available memory on the printing compute node when the environment starts

     Reading input from m1.nscf.in
Warning: card &IONS ignored
Warning: card / ignored
Warning: card &CELL ignored
Warning: card / ignored

     Current dimensions of program PWSCF are:
     Max number of different atomic species (ntypx) = 10
     Max number of k-points (npk) =  40000
     Max angular momentum in pseudopotentials (lmaxx) =  4

     Atomic positions and unit cell read from directory:
     ./out/m1.save/
     Atomic positions from file used, from input discarded


     Subspace diagonalization in iterative solution of the eigenvalue problem:
     one sub-group per band group will be used
     scalapack distributed-memory algorithm (size of sub-group:  6*  6 procs)


     Parallelization info
     --------------------
     sticks:   dense  smooth     PW     G-vecs:    dense   smooth      PW
     Min         172      57     18                 9117     1754     329
     Max         173      59     19                 9121     1755     333
     Sum        6197    2065    679               328281    63165   11933

     Using Slab Decomposition



     bravais-lattice index     =            0
     lattice parameter (alat)  =      10.7767  a.u.
     unit-cell volume          =     798.3408 (a.u.)^3
     number of atoms/cell      =           12
     number of atomic types    =            2
     number of electrons       =       100.00
     number of Kohn-Sham states=           70
     kinetic-energy cutoff     =      70.0000  Ry
     charge density cutoff     =     840.0000  Ry
     Exchange-correlation= SLA  PW   PBE  PBE
                           (   1   4   3   4   0   0   0)

     celldm(1)=  10.776730  celldm(2)=   0.000000  celldm(3)=   0.000000
     celldm(4)=   0.000000  celldm(5)=   0.000000  celldm(6)=   0.000000

     crystal axes: (cart. coord. in units of alat)
               a(1) = (   1.000000   0.000000   0.000000 )  
               a(2) = (   0.000000   0.564740   0.564740 )  
               a(3) = (  -0.500000  -0.564740   0.564740 )  

     reciprocal axes: (cart. coord. in units 2 pi/alat)
               b(1) = (  1.000000 -0.442681  0.442681 )  
               b(2) = ( -0.000000  0.885363  0.885363 )  
               b(3) = (  0.000000 -0.885363  0.885363 )  


     PseudoPot. # 1 for V  read from file:
     ./pseudo/v_pbe_v1.4.uspp.F.UPF
     MD5 check sum: 22b79981416ebb76fdaf5b1b8640f6fb
     Pseudo is Ultrasoft + core correction, Zval = 13.0
     Generated by new atomic code, or converted to UPF format
     Using radial grid of  853 points,  6 beta functions with: 
                l(1) =   0
                l(2) =   0
                l(3) =   1
                l(4) =   1
                l(5) =   2
                l(6) =   2
     Q(r) pseudized with  8 coefficients,  rinner =    1.100   1.100   1.100
                                                       1.100   1.100

     PseudoPot. # 2 for O  read from file:
     ./pseudo/o_pbe_v1.2.uspp.F.UPF
     MD5 check sum: 734c27235a0248c51dbae37a1fbe46ec
     Pseudo is Ultrasoft + core correction, Zval =  6.0
     Generated by new atomic code, or converted to UPF format
     Using radial grid of  737 points,  5 beta functions with: 
                l(1) =   0
                l(2) =   0
                l(3) =   1
                l(4) =   1
                l(5) =   2
     Q(r) pseudized with  8 coefficients,  rinner =    0.900   0.900   0.900
                                                       0.900   0.900

     atomic species   valence    mass     pseudopotential
        V             13.00    50.94000     V ( 1.00)
        O              6.00    16.00000     O ( 1.00)

     No symmetry found


                                    s                        frac. trans.

      isym =  1     identity                                     

 cryst.   s( 1) = (     1          0          0      )
                  (     0          1          0      )
                  (     0          0          1      )

 cart.    s( 1) = (  1.0000000 -0.0000000  0.0000000 )
                  (  0.0000000  1.0000000  0.0000000 )
                  (  0.0000000  0.0000000  1.0000000 )


   Cartesian axes

     site n.     atom                  positions (alat units)
         1           V   tau(   1) = (   0.0237600   0.0030496   1.1026438  )
         2           V   tau(   2) = (   0.4762400  -0.0030496   1.1563167  )
         3           V   tau(   3) = (   0.2737600   0.0268365   0.5616905  )
         4           V   tau(   4) = (   0.7262400  -0.0268365   0.5677897  )
         5           O   tau(   5) = (   0.0010900  -0.0008019   0.3367319  )
         6           O   tau(   6) = (   0.4981350  -0.0018411   0.3273008  )
         7           O   tau(   7) = (   0.5018650   0.0018411   0.8021795  )
         8           O   tau(   8) = (  -0.0010900   0.0008019   0.7927483  )
         9           O   tau(   9) = (   0.2489100   0.3367319   0.5639382  )
        10           O   tau(  10) = (   0.7518650   0.3273008   0.5628991  )
        11           O   tau(  11) = (   0.2481350  -0.3273008   0.5665812  )
        12           O   tau(  12) = (  -0.2489100  -0.3367319   0.5655421  )

   Crystallographic axes

     site n.     atom                  positions (cryst. coord.)
         1           V   tau(   1) = (  0.5105300  0.9789400  0.9735400  )
         2           V   tau(   2) = (  0.9894700  1.0210600  1.0264600  )
         3           V   tau(   3) = (  0.5105300  0.5210600  0.4735400  )
         4           V   tau(   4) = (  0.9894700  0.4789400  0.5264600  )
         5           O   tau(   5) = (  0.1505100  0.2974200  0.2988400  )
         6           O   tau(   6) = (  0.6438400  0.2881500  0.2914100  )
         7           O   tau(   7) = (  0.8561600  0.7118500  0.7085900  )
         8           O   tau(   8) = (  0.3494900  0.7025800  0.7011600  )
         9           O   tau(   9) = (  0.3494900  0.7974200  0.2011600  )
        10           O   tau(  10) = (  0.8561600  0.7881500  0.2085900  )
        11           O   tau(  11) = (  0.6438400  0.2118500  0.7914100  )
        12           O   tau(  12) = (  0.1505100  0.2025800  0.7988400  )

     number of k points=   288  Marzari-Vanderbilt smearing, width (Ry)=  0.0001
                       cart. coord. in units 2pi/alat
        k(    1) = (   0.0000000   0.0000000   0.0000000), wk =   0.0069444
        k(    2) = (   0.0000000  -0.1106704   0.1106704), wk =   0.0069444
        k(    3) = (   0.0000000  -0.2213407   0.2213407), wk =   0.0069444
        k(    4) = (   0.0000000  -0.3320111   0.3320111), wk =   0.0069444
        k(    5) = (   0.0000000  -0.4426815   0.4426815), wk =   0.0069444
        k(    6) = (   0.0000000  -0.5533519   0.5533519), wk =   0.0069444
        k(    7) = (   0.0000000  -0.6640222   0.6640222), wk =   0.0069444
        k(    8) = (   0.0000000  -0.7746926   0.7746926), wk =   0.0069444
        k(    9) = (   0.0000000   0.1475605   0.1475605), wk =   0.0069444
        k(   10) = (   0.0000000   0.0368901   0.2582309), wk =   0.0069444
        k(   11) = (   0.0000000  -0.0737802   0.3689012), wk =   0.0069444
        k(   12) = (   0.0000000  -0.1844506   0.4795716), wk =   0.0069444
        k(   13) = (   0.0000000  -0.2951210   0.5902420), wk =   0.0069444
        k(   14) = (   0.0000000  -0.4057914   0.7009124), wk =   0.0069444
        k(   15) = (   0.0000000  -0.5164617   0.8115827), wk =   0.0069444
        k(   16) = (   0.0000000  -0.6271321   0.9222531), wk =   0.0069444
        k(   17) = (   0.0000000   0.2951210   0.2951210), wk =   0.0069444
        k(   18) = (   0.0000000   0.1844506   0.4057914), wk =   0.0069444
        k(   19) = (   0.0000000   0.0737802   0.5164617), wk =   0.0069444
        k(   20) = (   0.0000000  -0.0368901   0.6271321), wk =   0.0069444
        k(   21) = (   0.0000000  -0.1475605   0.7378025), wk =   0.0069444
        k(   22) = (   0.0000000  -0.2582309   0.8484728), wk =   0.0069444
        k(   23) = (   0.0000000  -0.3689012   0.9591432), wk =   0.0069444
        k(   24) = (   0.0000000  -0.4795716   1.0698136), wk =   0.0069444
        k(   25) = (   0.0000000   0.4426815   0.4426815), wk =   0.0069444
        k(   26) = (   0.0000000   0.3320111   0.5533519), wk =   0.0069444
        k(   27) = (   0.0000000   0.2213407   0.6640222), wk =   0.0069444
        k(   28) = (   0.0000000   0.1106704   0.7746926), wk =   0.0069444
        k(   29) = (   0.0000000   0.0000000   0.8853630), wk =   0.0069444
        k(   30) = (   0.0000000  -0.1106704   0.9960333), wk =   0.0069444
        k(   31) = (   0.0000000  -0.2213407   1.1067037), wk =   0.0069444
        k(   32) = (   0.0000000  -0.3320111   1.2173741), wk =   0.0069444
        k(   33) = (   0.0000000   0.5902420   0.5902420), wk =   0.0069444
        k(   34) = (   0.0000000   0.4795716   0.7009124), wk =   0.0069444
        k(   35) = (   0.0000000   0.3689012   0.8115827), wk =   0.0069444
        k(   36) = (   0.0000000   0.2582309   0.9222531), wk =   0.0069444
        k(   37) = (   0.0000000   0.1475605   1.0329235), wk =   0.0069444
        k(   38) = (   0.0000000   0.0368901   1.1435938), wk =   0.0069444
        k(   39) = (   0.0000000  -0.0737802   1.2542642), wk =   0.0069444
        k(   40) = (   0.0000000  -0.1844506   1.3649346), wk =   0.0069444
        k(   41) = (   0.0000000   0.7378025   0.7378025), wk =   0.0069444
        k(   42) = (   0.0000000   0.6271321   0.8484728), wk =   0.0069444
        k(   43) = (   0.0000000   0.5164617   0.9591432), wk =   0.0069444
        k(   44) = (   0.0000000   0.4057914   1.0698136), wk =   0.0069444
        k(   45) = (   0.0000000   0.2951210   1.1804840), wk =   0.0069444
        k(   46) = (   0.0000000   0.1844506   1.2911543), wk =   0.0069444
        k(   47) = (   0.0000000   0.0737802   1.4018247), wk =   0.0069444
        k(   48) = (   0.0000000  -0.0368901   1.5124951), wk =   0.0069444
        k(   49) = (   0.1666667  -0.0737802   0.0737802), wk =   0.0069444
        k(   50) = (   0.1666667  -0.1844506   0.1844506), wk =   0.0069444
        k(   51) = (   0.1666667  -0.2951210   0.2951210), wk =   0.0069444
        k(   52) = (   0.1666667  -0.4057914   0.4057914), wk =   0.0069444
        k(   53) = (   0.1666667  -0.5164617   0.5164617), wk =   0.0069444
        k(   54) = (   0.1666667  -0.6271321   0.6271321), wk =   0.0069444
        k(   55) = (   0.1666667  -0.7378025   0.7378025), wk =   0.0069444
        k(   56) = (   0.1666667  -0.8484729   0.8484729), wk =   0.0069444
        k(   57) = (   0.1666667   0.0737802   0.2213407), wk =   0.0069444
        k(   58) = (   0.1666667  -0.0368901   0.3320111), wk =   0.0069444
        k(   59) = (   0.1666667  -0.1475605   0.4426815), wk =   0.0069444
        k(   60) = (   0.1666667  -0.2582309   0.5533519), wk =   0.0069444
        k(   61) = (   0.1666667  -0.3689012   0.6640222), wk =   0.0069444
        k(   62) = (   0.1666667  -0.4795716   0.7746926), wk =   0.0069444
        k(   63) = (   0.1666667  -0.5902420   0.8853630), wk =   0.0069444
        k(   64) = (   0.1666667  -0.7009124   0.9960334), wk =   0.0069444
        k(   65) = (   0.1666667   0.2213407   0.3689012), wk =   0.0069444
        k(   66) = (   0.1666667   0.1106704   0.4795716), wk =   0.0069444
        k(   67) = (   0.1666667  -0.0000000   0.5902420), wk =   0.0069444
        k(   68) = (   0.1666667  -0.1106704   0.7009124), wk =   0.0069444
        k(   69) = (   0.1666667  -0.2213407   0.8115827), wk =   0.0069444
        k(   70) = (   0.1666667  -0.3320111   0.9222531), wk =   0.0069444
        k(   71) = (   0.1666667  -0.4426815   1.0329235), wk =   0.0069444
        k(   72) = (   0.1666667  -0.5533519   1.1435938), wk =   0.0069444
        k(   73) = (   0.1666667   0.3689012   0.5164617), wk =   0.0069444
        k(   74) = (   0.1666667   0.2582309   0.6271321), wk =   0.0069444
        k(   75) = (   0.1666667   0.1475605   0.7378025), wk =   0.0069444
        k(   76) = (   0.1666667   0.0368901   0.8484729), wk =   0.0069444
        k(   77) = (   0.1666667  -0.0737802   0.9591432), wk =   0.0069444
        k(   78) = (   0.1666667  -0.1844506   1.0698136), wk =   0.0069444
        k(   79) = (   0.1666667  -0.2951210   1.1804840), wk =   0.0069444
        k(   80) = (   0.1666667  -0.4057914   1.2911543), wk =   0.0069444
        k(   81) = (   0.1666667   0.5164617   0.6640222), wk =   0.0069444
        k(   82) = (   0.1666667   0.4057914   0.7746926), wk =   0.0069444
        k(   83) = (   0.1666667   0.2951210   0.8853630), wk =   0.0069444
        k(   84) = (   0.1666667   0.1844506   0.9960334), wk =   0.0069444
        k(   85) = (   0.1666667   0.0737802   1.1067037), wk =   0.0069444
        k(   86) = (   0.1666667  -0.0368901   1.2173741), wk =   0.0069444
        k(   87) = (   0.1666667  -0.1475605   1.3280445), wk =   0.0069444
        k(   88) = (   0.1666667  -0.2582309   1.4387148), wk =   0.0069444
        k(   89) = (   0.1666667   0.6640222   0.8115827), wk =   0.0069444
        k(   90) = (   0.1666667   0.5533519   0.9222531), wk =   0.0069444
        k(   91) = (   0.1666667   0.4426815   1.0329235), wk =   0.0069444
        k(   92) = (   0.1666667   0.3320111   1.1435938), wk =   0.0069444
        k(   93) = (   0.1666667   0.2213407   1.2542642), wk =   0.0069444
        k(   94) = (   0.1666667   0.1106704   1.3649346), wk =   0.0069444
        k(   95) = (   0.1666667  -0.0000000   1.4756050), wk =   0.0069444
        k(   96) = (   0.1666667  -0.1106704   1.5862753), wk =   0.0069444
        k(   97) = (   0.3333333  -0.1475605   0.1475605), wk =   0.0069444
        k(   98) = (   0.3333333  -0.2582309   0.2582309), wk =   0.0069444
        k(   99) = (   0.3333333  -0.3689012   0.3689012), wk =   0.0069444
        k(  100) = (   0.3333333  -0.4795716   0.4795716), wk =   0.0069444
        k(  101) = (   0.3333333  -0.5902420   0.5902420), wk =   0.0069444
        k(  102) = (   0.3333333  -0.7009124   0.7009124), wk =   0.0069444
        k(  103) = (   0.3333333  -0.8115827   0.8115827), wk =   0.0069444
        k(  104) = (   0.3333333  -0.9222531   0.9222531), wk =   0.0069444
        k(  105) = (   0.3333333   0.0000000   0.2951210), wk =   0.0069444
        k(  106) = (   0.3333333  -0.1106704   0.4057914), wk =   0.0069444
        k(  107) = (   0.3333333  -0.2213407   0.5164617), wk =   0.0069444
        k(  108) = (   0.3333333  -0.3320111   0.6271321), wk =   0.0069444
        k(  109) = (   0.3333333  -0.4426815   0.7378025), wk =   0.0069444
        k(  110) = (   0.3333333  -0.5533519   0.8484729), wk =   0.0069444
        k(  111) = (   0.3333333  -0.6640222   0.9591432), wk =   0.0069444
        k(  112) = (   0.3333333  -0.7746926   1.0698136), wk =   0.0069444
        k(  113) = (   0.3333333   0.1475605   0.4426815), wk =   0.0069444
        k(  114) = (   0.3333333   0.0368901   0.5533519), wk =   0.0069444
        k(  115) = (   0.3333333  -0.0737802   0.6640222), wk =   0.0069444
        k(  116) = (   0.3333333  -0.1844506   0.7746926), wk =   0.0069444
        k(  117) = (   0.3333333  -0.2951210   0.8853630), wk =   0.0069444
        k(  118) = (   0.3333333  -0.4057914   0.9960333), wk =   0.0069444
        k(  119) = (   0.3333333  -0.5164617   1.1067037), wk =   0.0069444
        k(  120) = (   0.3333333  -0.6271321   1.2173741), wk =   0.0069444
        k(  121) = (   0.3333333   0.2951210   0.5902420), wk =   0.0069444
        k(  122) = (   0.3333333   0.1844506   0.7009124), wk =   0.0069444
        k(  123) = (   0.3333333   0.0737802   0.8115827), wk =   0.0069444
        k(  124) = (   0.3333333  -0.0368901   0.9222531), wk =   0.0069444
        k(  125) = (   0.3333333  -0.1475605   1.0329235), wk =   0.0069444
        k(  126) = (   0.3333333  -0.2582309   1.1435938), wk =   0.0069444
        k(  127) = (   0.3333333  -0.3689012   1.2542642), wk =   0.0069444
        k(  128) = (   0.3333333  -0.4795716   1.3649346), wk =   0.0069444
        k(  129) = (   0.3333333   0.4426815   0.7378025), wk =   0.0069444
        k(  130) = (   0.3333333   0.3320111   0.8484729), wk =   0.0069444
        k(  131) = (   0.3333333   0.2213407   0.9591432), wk =   0.0069444
        k(  132) = (   0.3333333   0.1106704   1.0698136), wk =   0.0069444
        k(  133) = (   0.3333333   0.0000000   1.1804840), wk =   0.0069444
        k(  134) = (   0.3333333  -0.1106704   1.2911543), wk =   0.0069444
        k(  135) = (   0.3333333  -0.2213407   1.4018247), wk =   0.0069444
        k(  136) = (   0.3333333  -0.3320111   1.5124951), wk =   0.0069444
        k(  137) = (   0.3333333   0.5902420   0.8853630), wk =   0.0069444
        k(  138) = (   0.3333333   0.4795716   0.9960333), wk =   0.0069444
        k(  139) = (   0.3333333   0.3689012   1.1067037), wk =   0.0069444
        k(  140) = (   0.3333333   0.2582309   1.2173741), wk =   0.0069444
        k(  141) = (   0.3333333   0.1475605   1.3280445), wk =   0.0069444
        k(  142) = (   0.3333333   0.0368901   1.4387148), wk =   0.0069444
        k(  143) = (   0.3333333  -0.0737802   1.5493852), wk =   0.0069444
        k(  144) = (   0.3333333  -0.1844506   1.6600556), wk =   0.0069444
        k(  145) = (   0.5000000  -0.2213407   0.2213407), wk =   0.0069444
        k(  146) = (   0.5000000  -0.3320111   0.3320111), wk =   0.0069444
        k(  147) = (   0.5000000  -0.4426815   0.4426815), wk =   0.0069444
        k(  148) = (   0.5000000  -0.5533519   0.5533519), wk =   0.0069444
        k(  149) = (   0.5000000  -0.6640222   0.6640222), wk =   0.0069444
        k(  150) = (   0.5000000  -0.7746926   0.7746926), wk =   0.0069444
        k(  151) = (   0.5000000  -0.8853630   0.8853630), wk =   0.0069444
        k(  152) = (   0.5000000  -0.9960333   0.9960333), wk =   0.0069444
        k(  153) = (   0.5000000  -0.0737802   0.3689012), wk =   0.0069444
        k(  154) = (   0.5000000  -0.1844506   0.4795716), wk =   0.0069444
        k(  155) = (   0.5000000  -0.2951210   0.5902420), wk =   0.0069444
        k(  156) = (   0.5000000  -0.4057914   0.7009124), wk =   0.0069444
        k(  157) = (   0.5000000  -0.5164617   0.8115827), wk =   0.0069444
        k(  158) = (   0.5000000  -0.6271321   0.9222531), wk =   0.0069444
        k(  159) = (   0.5000000  -0.7378025   1.0329235), wk =   0.0069444
        k(  160) = (   0.5000000  -0.8484728   1.1435938), wk =   0.0069444
        k(  161) = (   0.5000000   0.0737802   0.5164617), wk =   0.0069444
        k(  162) = (   0.5000000  -0.0368901   0.6271321), wk =   0.0069444
        k(  163) = (   0.5000000  -0.1475605   0.7378025), wk =   0.0069444
        k(  164) = (   0.5000000  -0.2582309   0.8484728), wk =   0.0069444
        k(  165) = (   0.5000000  -0.3689012   0.9591432), wk =   0.0069444
        k(  166) = (   0.5000000  -0.4795716   1.0698136), wk =   0.0069444
        k(  167) = (   0.5000000  -0.5902420   1.1804840), wk =   0.0069444
        k(  168) = (   0.5000000  -0.7009124   1.2911543), wk =   0.0069444
        k(  169) = (   0.5000000   0.2213407   0.6640222), wk =   0.0069444
        k(  170) = (   0.5000000   0.1106704   0.7746926), wk =   0.0069444
        k(  171) = (   0.5000000  -0.0000000   0.8853630), wk =   0.0069444
        k(  172) = (   0.5000000  -0.1106704   0.9960333), wk =   0.0069444
        k(  173) = (   0.5000000  -0.2213407   1.1067037), wk =   0.0069444
        k(  174) = (   0.5000000  -0.3320111   1.2173741), wk =   0.0069444
        k(  175) = (   0.5000000  -0.4426815   1.3280445), wk =   0.0069444
        k(  176) = (   0.5000000  -0.5533519   1.4387148), wk =   0.0069444
        k(  177) = (   0.5000000   0.3689012   0.8115827), wk =   0.0069444
        k(  178) = (   0.5000000   0.2582309   0.9222531), wk =   0.0069444
        k(  179) = (   0.5000000   0.1475605   1.0329235), wk =   0.0069444
        k(  180) = (   0.5000000   0.0368901   1.1435938), wk =   0.0069444
        k(  181) = (   0.5000000  -0.0737802   1.2542642), wk =   0.0069444
        k(  182) = (   0.5000000  -0.1844506   1.3649346), wk =   0.0069444
        k(  183) = (   0.5000000  -0.2951210   1.4756050), wk =   0.0069444
        k(  184) = (   0.5000000  -0.4057914   1.5862753), wk =   0.0069444
        k(  185) = (   0.5000000   0.5164617   0.9591432), wk =   0.0069444
        k(  186) = (   0.5000000   0.4057914   1.0698136), wk =   0.0069444
        k(  187) = (   0.5000000   0.2951210   1.1804840), wk =   0.0069444
        k(  188) = (   0.5000000   0.1844506   1.2911543), wk =   0.0069444
        k(  189) = (   0.5000000   0.0737802   1.4018247), wk =   0.0069444
        k(  190) = (   0.5000000  -0.0368901   1.5124951), wk =   0.0069444
        k(  191) = (   0.5000000  -0.1475605   1.6231655), wk =   0.0069444
        k(  192) = (   0.5000000  -0.2582309   1.7338358), wk =   0.0069444
        k(  193) = (   0.6666667  -0.2951210   0.2951210), wk =   0.0069444
        k(  194) = (   0.6666667  -0.4057914   0.4057914), wk =   0.0069444
        k(  195) = (   0.6666667  -0.5164617   0.5164617), wk =   0.0069444
        k(  196) = (   0.6666667  -0.6271321   0.6271321), wk =   0.0069444
        k(  197) = (   0.6666667  -0.7378025   0.7378025), wk =   0.0069444
        k(  198) = (   0.6666667  -0.8484729   0.8484729), wk =   0.0069444
        k(  199) = (   0.6666667  -0.9591432   0.9591432), wk =   0.0069444
        k(  200) = (   0.6666667  -1.0698136   1.0698136), wk =   0.0069444
        k(  201) = (   0.6666667  -0.1475605   0.4426815), wk =   0.0069444
        k(  202) = (   0.6666667  -0.2582309   0.5533519), wk =   0.0069444
        k(  203) = (   0.6666667  -0.3689012   0.6640222), wk =   0.0069444
        k(  204) = (   0.6666667  -0.4795716   0.7746926), wk =   0.0069444
        k(  205) = (   0.6666667  -0.5902420   0.8853630), wk =   0.0069444
        k(  206) = (   0.6666667  -0.7009124   0.9960334), wk =   0.0069444
        k(  207) = (   0.6666667  -0.8115827   1.1067037), wk =   0.0069444
        k(  208) = (   0.6666667  -0.9222531   1.2173741), wk =   0.0069444
        k(  209) = (   0.6666667  -0.0000000   0.5902420), wk =   0.0069444
        k(  210) = (   0.6666667  -0.1106704   0.7009124), wk =   0.0069444
        k(  211) = (   0.6666667  -0.2213407   0.8115827), wk =   0.0069444
        k(  212) = (   0.6666667  -0.3320111   0.9222531), wk =   0.0069444
        k(  213) = (   0.6666667  -0.4426815   1.0329235), wk =   0.0069444
        k(  214) = (   0.6666667  -0.5533519   1.1435938), wk =   0.0069444
        k(  215) = (   0.6666667  -0.6640222   1.2542642), wk =   0.0069444
        k(  216) = (   0.6666667  -0.7746926   1.3649346), wk =   0.0069444
        k(  217) = (   0.6666667   0.1475605   0.7378025), wk =   0.0069444
        k(  218) = (   0.6666667   0.0368901   0.8484729), wk =   0.0069444
        k(  219) = (   0.6666667  -0.0737802   0.9591432), wk =   0.0069444
        k(  220) = (   0.6666667  -0.1844506   1.0698136), wk =   0.0069444
        k(  221) = (   0.6666667  -0.2951210   1.1804840), wk =   0.0069444
        k(  222) = (   0.6666667  -0.4057914   1.2911543), wk =   0.0069444
        k(  223) = (   0.6666667  -0.5164617   1.4018247), wk =   0.0069444
        k(  224) = (   0.6666667  -0.6271321   1.5124951), wk =   0.0069444
        k(  225) = (   0.6666667   0.2951210   0.8853630), wk =   0.0069444
        k(  226) = (   0.6666667   0.1844506   0.9960334), wk =   0.0069444
        k(  227) = (   0.6666667   0.0737802   1.1067037), wk =   0.0069444
        k(  228) = (   0.6666667  -0.0368901   1.2173741), wk =   0.0069444
        k(  229) = (   0.6666667  -0.1475605   1.3280445), wk =   0.0069444
        k(  230) = (   0.6666667  -0.2582309   1.4387148), wk =   0.0069444
        k(  231) = (   0.6666667  -0.3689012   1.5493852), wk =   0.0069444
        k(  232) = (   0.6666667  -0.4795716   1.6600556), wk =   0.0069444
        k(  233) = (   0.6666667   0.4426815   1.0329235), wk =   0.0069444
        k(  234) = (   0.6666667   0.3320111   1.1435938), wk =   0.0069444
        k(  235) = (   0.6666667   0.2213407   1.2542642), wk =   0.0069444
        k(  236) = (   0.6666667   0.1106704   1.3649346), wk =   0.0069444
        k(  237) = (   0.6666667  -0.0000000   1.4756050), wk =   0.0069444
        k(  238) = (   0.6666667  -0.1106704   1.5862753), wk =   0.0069444
        k(  239) = (   0.6666667  -0.2213407   1.6969457), wk =   0.0069444
        k(  240) = (   0.6666667  -0.3320111   1.8076161), wk =   0.0069444
        k(  241) = (   0.8333333  -0.3689012   0.3689012), wk =   0.0069444
        k(  242) = (   0.8333333  -0.4795716   0.4795716), wk =   0.0069444
        k(  243) = (   0.8333333  -0.5902420   0.5902420), wk =   0.0069444
        k(  244) = (   0.8333333  -0.7009124   0.7009124), wk =   0.0069444
        k(  245) = (   0.8333333  -0.8115827   0.8115827), wk =   0.0069444
        k(  246) = (   0.8333333  -0.9222531   0.9222531), wk =   0.0069444
        k(  247) = (   0.8333333  -1.0329235   1.0329235), wk =   0.0069444
        k(  248) = (   0.8333333  -1.1435938   1.1435938), wk =   0.0069444
        k(  249) = (   0.8333333  -0.2213407   0.5164617), wk =   0.0069444
        k(  250) = (   0.8333333  -0.3320111   0.6271321), wk =   0.0069444
        k(  251) = (   0.8333333  -0.4426815   0.7378025), wk =   0.0069444
        k(  252) = (   0.8333333  -0.5533519   0.8484729), wk =   0.0069444
        k(  253) = (   0.8333333  -0.6640222   0.9591432), wk =   0.0069444
        k(  254) = (   0.8333333  -0.7746926   1.0698136), wk =   0.0069444
        k(  255) = (   0.8333333  -0.8853630   1.1804840), wk =   0.0069444
        k(  256) = (   0.8333333  -0.9960333   1.2911543), wk =   0.0069444
        k(  257) = (   0.8333333  -0.0737802   0.6640222), wk =   0.0069444
        k(  258) = (   0.8333333  -0.1844506   0.7746926), wk =   0.0069444
        k(  259) = (   0.8333333  -0.2951210   0.8853630), wk =   0.0069444
        k(  260) = (   0.8333333  -0.4057914   0.9960333), wk =   0.0069444
        k(  261) = (   0.8333333  -0.5164617   1.1067037), wk =   0.0069444
        k(  262) = (   0.8333333  -0.6271321   1.2173741), wk =   0.0069444
        k(  263) = (   0.8333333  -0.7378025   1.3280445), wk =   0.0069444
        k(  264) = (   0.8333333  -0.8484729   1.4387148), wk =   0.0069444
        k(  265) = (   0.8333333   0.0737802   0.8115827), wk =   0.0069444
        k(  266) = (   0.8333333  -0.0368901   0.9222531), wk =   0.0069444
        k(  267) = (   0.8333333  -0.1475605   1.0329235), wk =   0.0069444
        k(  268) = (   0.8333333  -0.2582309   1.1435938), wk =   0.0069444
        k(  269) = (   0.8333333  -0.3689012   1.2542642), wk =   0.0069444
        k(  270) = (   0.8333333  -0.4795716   1.3649346), wk =   0.0069444
        k(  271) = (   0.8333333  -0.5902420   1.4756050), wk =   0.0069444
        k(  272) = (   0.8333333  -0.7009124   1.5862753), wk =   0.0069444
        k(  273) = (   0.8333333   0.2213407   0.9591432), wk =   0.0069444
        k(  274) = (   0.8333333   0.1106704   1.0698136), wk =   0.0069444
        k(  275) = (   0.8333333   0.0000000   1.1804840), wk =   0.0069444
        k(  276) = (   0.8333333  -0.1106704   1.2911543), wk =   0.0069444
        k(  277) = (   0.8333333  -0.2213407   1.4018247), wk =   0.0069444
        k(  278) = (   0.8333333  -0.3320111   1.5124951), wk =   0.0069444
        k(  279) = (   0.8333333  -0.4426815   1.6231655), wk =   0.0069444
        k(  280) = (   0.8333333  -0.5533519   1.7338358), wk =   0.0069444
        k(  281) = (   0.8333333   0.3689012   1.1067037), wk =   0.0069444
        k(  282) = (   0.8333333   0.2582309   1.2173741), wk =   0.0069444
        k(  283) = (   0.8333333   0.1475605   1.3280445), wk =   0.0069444
        k(  284) = (   0.8333333   0.0368901   1.4387148), wk =   0.0069444
        k(  285) = (   0.8333333  -0.0737802   1.5493852), wk =   0.0069444
        k(  286) = (   0.8333333  -0.1844506   1.6600556), wk =   0.0069444
        k(  287) = (   0.8333333  -0.2951210   1.7707259), wk =   0.0069444
        k(  288) = (   0.8333333  -0.4057914   1.8813963), wk =   0.0069444

                       cryst. coord.
        k(    1) = (   0.0000000   0.0000000   0.0000000), wk =   0.0069444
        k(    2) = (   0.0000000   0.0000000   0.1250000), wk =   0.0069444
        k(    3) = (   0.0000000   0.0000000   0.2500000), wk =   0.0069444
        k(    4) = (   0.0000000   0.0000000   0.3750000), wk =   0.0069444
        k(    5) = (   0.0000000   0.0000000   0.5000000), wk =   0.0069444
        k(    6) = (   0.0000000   0.0000000   0.6250000), wk =   0.0069444
        k(    7) = (   0.0000000   0.0000000   0.7500000), wk =   0.0069444
        k(    8) = (   0.0000000   0.0000000   0.8750000), wk =   0.0069444
        k(    9) = (   0.0000000   0.1666667   0.0000000), wk =   0.0069444
        k(   10) = (   0.0000000   0.1666667   0.1250000), wk =   0.0069444
        k(   11) = (   0.0000000   0.1666667   0.2500000), wk =   0.0069444
        k(   12) = (   0.0000000   0.1666667   0.3750000), wk =   0.0069444
        k(   13) = (   0.0000000   0.1666667   0.5000000), wk =   0.0069444
        k(   14) = (   0.0000000   0.1666667   0.6250000), wk =   0.0069444
        k(   15) = (   0.0000000   0.1666667   0.7500000), wk =   0.0069444
        k(   16) = (   0.0000000   0.1666667   0.8750000), wk =   0.0069444
        k(   17) = (   0.0000000   0.3333333   0.0000000), wk =   0.0069444
        k(   18) = (   0.0000000   0.3333333   0.1250000), wk =   0.0069444
        k(   19) = (   0.0000000   0.3333333   0.2500000), wk =   0.0069444
        k(   20) = (   0.0000000   0.3333333   0.3750000), wk =   0.0069444
        k(   21) = (   0.0000000   0.3333333   0.5000000), wk =   0.0069444
        k(   22) = (   0.0000000   0.3333333   0.6250000), wk =   0.0069444
        k(   23) = (   0.0000000   0.3333333   0.7500000), wk =   0.0069444
        k(   24) = (   0.0000000   0.3333333   0.8750000), wk =   0.0069444
        k(   25) = (   0.0000000   0.5000000   0.0000000), wk =   0.0069444
        k(   26) = (   0.0000000   0.5000000   0.1250000), wk =   0.0069444
        k(   27) = (   0.0000000   0.5000000   0.2500000), wk =   0.0069444
        k(   28) = (   0.0000000   0.5000000   0.3750000), wk =   0.0069444
        k(   29) = (   0.0000000   0.5000000   0.5000000), wk =   0.0069444
        k(   30) = (   0.0000000   0.5000000   0.6250000), wk =   0.0069444
        k(   31) = (   0.0000000   0.5000000   0.7500000), wk =   0.0069444
        k(   32) = (   0.0000000   0.5000000   0.8750000), wk =   0.0069444
        k(   33) = (   0.0000000   0.6666667   0.0000000), wk =   0.0069444
        k(   34) = (   0.0000000   0.6666667   0.1250000), wk =   0.0069444
        k(   35) = (   0.0000000   0.6666667   0.2500000), wk =   0.0069444
        k(   36) = (   0.0000000   0.6666667   0.3750000), wk =   0.0069444
        k(   37) = (   0.0000000   0.6666667   0.5000000), wk =   0.0069444
        k(   38) = (   0.0000000   0.6666667   0.6250000), wk =   0.0069444
        k(   39) = (   0.0000000   0.6666667   0.7500000), wk =   0.0069444
        k(   40) = (   0.0000000   0.6666667   0.8750000), wk =   0.0069444
        k(   41) = (   0.0000000   0.8333333   0.0000000), wk =   0.0069444
        k(   42) = (   0.0000000   0.8333333   0.1250000), wk =   0.0069444
        k(   43) = (   0.0000000   0.8333333   0.2500000), wk =   0.0069444
        k(   44) = (   0.0000000   0.8333333   0.3750000), wk =   0.0069444
        k(   45) = (   0.0000000   0.8333333   0.5000000), wk =   0.0069444
        k(   46) = (   0.0000000   0.8333333   0.6250000), wk =   0.0069444
        k(   47) = (   0.0000000   0.8333333   0.7500000), wk =   0.0069444
        k(   48) = (   0.0000000   0.8333333   0.8750000), wk =   0.0069444
        k(   49) = (   0.1666667   0.0000000   0.0000000), wk =   0.0069444
        k(   50) = (   0.1666667   0.0000000   0.1250000), wk =   0.0069444
        k(   51) = (   0.1666667   0.0000000   0.2500000), wk =   0.0069444
        k(   52) = (   0.1666667   0.0000000   0.3750000), wk =   0.0069444
        k(   53) = (   0.1666667   0.0000000   0.5000000), wk =   0.0069444
        k(   54) = (   0.1666667   0.0000000   0.6250000), wk =   0.0069444
        k(   55) = (   0.1666667   0.0000000   0.7500000), wk =   0.0069444
        k(   56) = (   0.1666667   0.0000000   0.8750000), wk =   0.0069444
        k(   57) = (   0.1666667   0.1666667   0.0000000), wk =   0.0069444
        k(   58) = (   0.1666667   0.1666667   0.1250000), wk =   0.0069444
        k(   59) = (   0.1666667   0.1666667   0.2500000), wk =   0.0069444
        k(   60) = (   0.1666667   0.1666667   0.3750000), wk =   0.0069444
        k(   61) = (   0.1666667   0.1666667   0.5000000), wk =   0.0069444
        k(   62) = (   0.1666667   0.1666667   0.6250000), wk =   0.0069444
        k(   63) = (   0.1666667   0.1666667   0.7500000), wk =   0.0069444
        k(   64) = (   0.1666667   0.1666667   0.8750000), wk =   0.0069444
        k(   65) = (   0.1666667   0.3333333  -0.0000000), wk =   0.0069444
        k(   66) = (   0.1666667   0.3333333   0.1250000), wk =   0.0069444
        k(   67) = (   0.1666667   0.3333333   0.2500000), wk =   0.0069444
        k(   68) = (   0.1666667   0.3333333   0.3750000), wk =   0.0069444
        k(   69) = (   0.1666667   0.3333333   0.5000000), wk =   0.0069444
        k(   70) = (   0.1666667   0.3333333   0.6250000), wk =   0.0069444
        k(   71) = (   0.1666667   0.3333333   0.7500000), wk =   0.0069444
        k(   72) = (   0.1666667   0.3333333   0.8750000), wk =   0.0069444
        k(   73) = (   0.1666667   0.5000000   0.0000000), wk =   0.0069444
        k(   74) = (   0.1666667   0.5000000   0.1250000), wk =   0.0069444
        k(   75) = (   0.1666667   0.5000000   0.2500000), wk =   0.0069444
        k(   76) = (   0.1666667   0.5000000   0.3750000), wk =   0.0069444
        k(   77) = (   0.1666667   0.5000000   0.5000000), wk =   0.0069444
        k(   78) = (   0.1666667   0.5000000   0.6250000), wk =   0.0069444
        k(   79) = (   0.1666667   0.5000000   0.7500000), wk =   0.0069444
        k(   80) = (   0.1666667   0.5000000   0.8750000), wk =   0.0069444
        k(   81) = (   0.1666667   0.6666667   0.0000000), wk =   0.0069444
        k(   82) = (   0.1666667   0.6666667   0.1250000), wk =   0.0069444
        k(   83) = (   0.1666667   0.6666667   0.2500000), wk =   0.0069444
        k(   84) = (   0.1666667   0.6666667   0.3750000), wk =   0.0069444
        k(   85) = (   0.1666667   0.6666667   0.5000000), wk =   0.0069444
        k(   86) = (   0.1666667   0.6666667   0.6250000), wk =   0.0069444
        k(   87) = (   0.1666667   0.6666667   0.7500000), wk =   0.0069444
        k(   88) = (   0.1666667   0.6666667   0.8750000), wk =   0.0069444
        k(   89) = (   0.1666667   0.8333333   0.0000000), wk =   0.0069444
        k(   90) = (   0.1666667   0.8333333   0.1250000), wk =   0.0069444
        k(   91) = (   0.1666667   0.8333333   0.2500000), wk =   0.0069444
        k(   92) = (   0.1666667   0.8333333   0.3750000), wk =   0.0069444
        k(   93) = (   0.1666667   0.8333333   0.5000000), wk =   0.0069444
        k(   94) = (   0.1666667   0.8333333   0.6250000), wk =   0.0069444
        k(   95) = (   0.1666667   0.8333333   0.7500000), wk =   0.0069444
        k(   96) = (   0.1666667   0.8333333   0.8750000), wk =   0.0069444
        k(   97) = (   0.3333333   0.0000000  -0.0000000), wk =   0.0069444
        k(   98) = (   0.3333333   0.0000000   0.1250000), wk =   0.0069444
        k(   99) = (   0.3333333   0.0000000   0.2500000), wk =   0.0069444
        k(  100) = (   0.3333333   0.0000000   0.3750000), wk =   0.0069444
        k(  101) = (   0.3333333   0.0000000   0.5000000), wk =   0.0069444
        k(  102) = (   0.3333333   0.0000000   0.6250000), wk =   0.0069444
        k(  103) = (   0.3333333   0.0000000   0.7500000), wk =   0.0069444
        k(  104) = (   0.3333333   0.0000000   0.8750000), wk =   0.0069444
        k(  105) = (   0.3333333   0.1666667  -0.0000000), wk =   0.0069444
        k(  106) = (   0.3333333   0.1666667   0.1250000), wk =   0.0069444
        k(  107) = (   0.3333333   0.1666667   0.2500000), wk =   0.0069444
        k(  108) = (   0.3333333   0.1666667   0.3750000), wk =   0.0069444
        k(  109) = (   0.3333333   0.1666667   0.5000000), wk =   0.0069444
        k(  110) = (   0.3333333   0.1666667   0.6250000), wk =   0.0069444
        k(  111) = (   0.3333333   0.1666667   0.7500000), wk =   0.0069444
        k(  112) = (   0.3333333   0.1666667   0.8750000), wk =   0.0069444
        k(  113) = (   0.3333333   0.3333333   0.0000000), wk =   0.0069444
        k(  114) = (   0.3333333   0.3333333   0.1250000), wk =   0.0069444
        k(  115) = (   0.3333333   0.3333333   0.2500000), wk =   0.0069444
        k(  116) = (   0.3333333   0.3333333   0.3750000), wk =   0.0069444
        k(  117) = (   0.3333333   0.3333333   0.5000000), wk =   0.0069444
        k(  118) = (   0.3333333   0.3333333   0.6250000), wk =   0.0069444
        k(  119) = (   0.3333333   0.3333333   0.7500000), wk =   0.0069444
        k(  120) = (   0.3333333   0.3333333   0.8750000), wk =   0.0069444
        k(  121) = (   0.3333333   0.5000000   0.0000000), wk =   0.0069444
        k(  122) = (   0.3333333   0.5000000   0.1250000), wk =   0.0069444
        k(  123) = (   0.3333333   0.5000000   0.2500000), wk =   0.0069444
        k(  124) = (   0.3333333   0.5000000   0.3750000), wk =   0.0069444
        k(  125) = (   0.3333333   0.5000000   0.5000000), wk =   0.0069444
        k(  126) = (   0.3333333   0.5000000   0.6250000), wk =   0.0069444
        k(  127) = (   0.3333333   0.5000000   0.7500000), wk =   0.0069444
        k(  128) = (   0.3333333   0.5000000   0.8750000), wk =   0.0069444
        k(  129) = (   0.3333333   0.6666667  -0.0000000), wk =   0.0069444
        k(  130) = (   0.3333333   0.6666667   0.1250000), wk =   0.0069444
        k(  131) = (   0.3333333   0.6666667   0.2500000), wk =   0.0069444
        k(  132) = (   0.3333333   0.6666667   0.3750000), wk =   0.0069444
        k(  133) = (   0.3333333   0.6666667   0.5000000), wk =   0.0069444
        k(  134) = (   0.3333333   0.6666667   0.6250000), wk =   0.0069444
        k(  135) = (   0.3333333   0.6666667   0.7500000), wk =   0.0069444
        k(  136) = (   0.3333333   0.6666667   0.8750000), wk =   0.0069444
        k(  137) = (   0.3333333   0.8333333  -0.0000000), wk =   0.0069444
        k(  138) = (   0.3333333   0.8333333   0.1250000), wk =   0.0069444
        k(  139) = (   0.3333333   0.8333333   0.2500000), wk =   0.0069444
        k(  140) = (   0.3333333   0.8333333   0.3750000), wk =   0.0069444
        k(  141) = (   0.3333333   0.8333333   0.5000000), wk =   0.0069444
        k(  142) = (   0.3333333   0.8333333   0.6250000), wk =   0.0069444
        k(  143) = (   0.3333333   0.8333333   0.7500000), wk =   0.0069444
        k(  144) = (   0.3333333   0.8333333   0.8750000), wk =   0.0069444
        k(  145) = (   0.5000000   0.0000000   0.0000000), wk =   0.0069444
        k(  146) = (   0.5000000   0.0000000   0.1250000), wk =   0.0069444
        k(  147) = (   0.5000000   0.0000000   0.2500000), wk =   0.0069444
        k(  148) = (   0.5000000   0.0000000   0.3750000), wk =   0.0069444
        k(  149) = (   0.5000000   0.0000000   0.5000000), wk =   0.0069444
        k(  150) = (   0.5000000   0.0000000   0.6250000), wk =   0.0069444
        k(  151) = (   0.5000000   0.0000000   0.7500000), wk =   0.0069444
        k(  152) = (   0.5000000   0.0000000   0.8750000), wk =   0.0069444
        k(  153) = (   0.5000000   0.1666667  -0.0000000), wk =   0.0069444
        k(  154) = (   0.5000000   0.1666667   0.1250000), wk =   0.0069444
        k(  155) = (   0.5000000   0.1666667   0.2500000), wk =   0.0069444
        k(  156) = (   0.5000000   0.1666667   0.3750000), wk =   0.0069444
        k(  157) = (   0.5000000   0.1666667   0.5000000), wk =   0.0069444
        k(  158) = (   0.5000000   0.1666667   0.6250000), wk =   0.0069444
        k(  159) = (   0.5000000   0.1666667   0.7500000), wk =   0.0069444
        k(  160) = (   0.5000000   0.1666667   0.8750000), wk =   0.0069444
        k(  161) = (   0.5000000   0.3333333   0.0000000), wk =   0.0069444
        k(  162) = (   0.5000000   0.3333333   0.1250000), wk =   0.0069444
        k(  163) = (   0.5000000   0.3333333   0.2500000), wk =   0.0069444
        k(  164) = (   0.5000000   0.3333333   0.3750000), wk =   0.0069444
        k(  165) = (   0.5000000   0.3333333   0.5000000), wk =   0.0069444
        k(  166) = (   0.5000000   0.3333333   0.6250000), wk =   0.0069444
        k(  167) = (   0.5000000   0.3333333   0.7500000), wk =   0.0069444
        k(  168) = (   0.5000000   0.3333333   0.8750000), wk =   0.0069444
        k(  169) = (   0.5000000   0.5000000   0.0000000), wk =   0.0069444
        k(  170) = (   0.5000000   0.5000000   0.1250000), wk =   0.0069444
        k(  171) = (   0.5000000   0.5000000   0.2500000), wk =   0.0069444
        k(  172) = (   0.5000000   0.5000000   0.3750000), wk =   0.0069444
        k(  173) = (   0.5000000   0.5000000   0.5000000), wk =   0.0069444
        k(  174) = (   0.5000000   0.5000000   0.6250000), wk =   0.0069444
        k(  175) = (   0.5000000   0.5000000   0.7500000), wk =   0.0069444
        k(  176) = (   0.5000000   0.5000000   0.8750000), wk =   0.0069444
        k(  177) = (   0.5000000   0.6666667  -0.0000000), wk =   0.0069444
        k(  178) = (   0.5000000   0.6666667   0.1250000), wk =   0.0069444
        k(  179) = (   0.5000000   0.6666667   0.2500000), wk =   0.0069444
        k(  180) = (   0.5000000   0.6666667   0.3750000), wk =   0.0069444
        k(  181) = (   0.5000000   0.6666667   0.5000000), wk =   0.0069444
        k(  182) = (   0.5000000   0.6666667   0.6250000), wk =   0.0069444
        k(  183) = (   0.5000000   0.6666667   0.7500000), wk =   0.0069444
        k(  184) = (   0.5000000   0.6666667   0.8750000), wk =   0.0069444
        k(  185) = (   0.5000000   0.8333333  -0.0000000), wk =   0.0069444
        k(  186) = (   0.5000000   0.8333333   0.1250000), wk =   0.0069444
        k(  187) = (   0.5000000   0.8333333   0.2500000), wk =   0.0069444
        k(  188) = (   0.5000000   0.8333333   0.3750000), wk =   0.0069444
        k(  189) = (   0.5000000   0.8333333   0.5000000), wk =   0.0069444
        k(  190) = (   0.5000000   0.8333333   0.6250000), wk =   0.0069444
        k(  191) = (   0.5000000   0.8333333   0.7500000), wk =   0.0069444
        k(  192) = (   0.5000000   0.8333333   0.8750000), wk =   0.0069444
        k(  193) = (   0.6666667   0.0000000   0.0000000), wk =   0.0069444
        k(  194) = (   0.6666667   0.0000000   0.1250000), wk =   0.0069444
        k(  195) = (   0.6666667   0.0000000   0.2500000), wk =   0.0069444
        k(  196) = (   0.6666667   0.0000000   0.3750000), wk =   0.0069444
        k(  197) = (   0.6666667   0.0000000   0.5000000), wk =   0.0069444
        k(  198) = (   0.6666667   0.0000000   0.6250000), wk =   0.0069444
        k(  199) = (   0.6666667   0.0000000   0.7500000), wk =   0.0069444
        k(  200) = (   0.6666667   0.0000000   0.8750000), wk =   0.0069444
        k(  201) = (   0.6666667   0.1666667   0.0000000), wk =   0.0069444
        k(  202) = (   0.6666667   0.1666667   0.1250000), wk =   0.0069444
        k(  203) = (   0.6666667   0.1666667   0.2500000), wk =   0.0069444
        k(  204) = (   0.6666667   0.1666667   0.3750000), wk =   0.0069444
        k(  205) = (   0.6666667   0.1666667   0.5000000), wk =   0.0069444
        k(  206) = (   0.6666667   0.1666667   0.6250000), wk =   0.0069444
        k(  207) = (   0.6666667   0.1666667   0.7500000), wk =   0.0069444
        k(  208) = (   0.6666667   0.1666667   0.8750000), wk =   0.0069444
        k(  209) = (   0.6666667   0.3333333  -0.0000000), wk =   0.0069444
        k(  210) = (   0.6666667   0.3333333   0.1250000), wk =   0.0069444
        k(  211) = (   0.6666667   0.3333333   0.2500000), wk =   0.0069444
        k(  212) = (   0.6666667   0.3333333   0.3750000), wk =   0.0069444
        k(  213) = (   0.6666667   0.3333333   0.5000000), wk =   0.0069444
        k(  214) = (   0.6666667   0.3333333   0.6250000), wk =   0.0069444
        k(  215) = (   0.6666667   0.3333333   0.7500000), wk =   0.0069444
        k(  216) = (   0.6666667   0.3333333   0.8750000), wk =   0.0069444
        k(  217) = (   0.6666667   0.5000000  -0.0000000), wk =   0.0069444
        k(  218) = (   0.6666667   0.5000000   0.1250000), wk =   0.0069444
        k(  219) = (   0.6666667   0.5000000   0.2500000), wk =   0.0069444
        k(  220) = (   0.6666667   0.5000000   0.3750000), wk =   0.0069444
        k(  221) = (   0.6666667   0.5000000   0.5000000), wk =   0.0069444
        k(  222) = (   0.6666667   0.5000000   0.6250000), wk =   0.0069444
        k(  223) = (   0.6666667   0.5000000   0.7500000), wk =   0.0069444
        k(  224) = (   0.6666667   0.5000000   0.8750000), wk =   0.0069444
        k(  225) = (   0.6666667   0.6666667   0.0000000), wk =   0.0069444
        k(  226) = (   0.6666667   0.6666667   0.1250000), wk =   0.0069444
        k(  227) = (   0.6666667   0.6666667   0.2500000), wk =   0.0069444
        k(  228) = (   0.6666667   0.6666667   0.3750000), wk =   0.0069444
        k(  229) = (   0.6666667   0.6666667   0.5000000), wk =   0.0069444
        k(  230) = (   0.6666667   0.6666667   0.6250000), wk =   0.0069444
        k(  231) = (   0.6666667   0.6666667   0.7500000), wk =   0.0069444
        k(  232) = (   0.6666667   0.6666667   0.8750000), wk =   0.0069444
        k(  233) = (   0.6666667   0.8333333  -0.0000000), wk =   0.0069444
        k(  234) = (   0.6666667   0.8333333   0.1250000), wk =   0.0069444
        k(  235) = (   0.6666667   0.8333333   0.2500000), wk =   0.0069444
        k(  236) = (   0.6666667   0.8333333   0.3750000), wk =   0.0069444
        k(  237) = (   0.6666667   0.8333333   0.5000000), wk =   0.0069444
        k(  238) = (   0.6666667   0.8333333   0.6250000), wk =   0.0069444
        k(  239) = (   0.6666667   0.8333333   0.7500000), wk =   0.0069444
        k(  240) = (   0.6666667   0.8333333   0.8750000), wk =   0.0069444
        k(  241) = (   0.8333333   0.0000000  -0.0000000), wk =   0.0069444
        k(  242) = (   0.8333333   0.0000000   0.1250000), wk =   0.0069444
        k(  243) = (   0.8333333   0.0000000   0.2500000), wk =   0.0069444
        k(  244) = (   0.8333333   0.0000000   0.3750000), wk =   0.0069444
        k(  245) = (   0.8333333   0.0000000   0.5000000), wk =   0.0069444
        k(  246) = (   0.8333333   0.0000000   0.6250000), wk =   0.0069444
        k(  247) = (   0.8333333   0.0000000   0.7500000), wk =   0.0069444
        k(  248) = (   0.8333333   0.0000000   0.8750000), wk =   0.0069444
        k(  249) = (   0.8333333   0.1666667  -0.0000000), wk =   0.0069444
        k(  250) = (   0.8333333   0.1666667   0.1250000), wk =   0.0069444
        k(  251) = (   0.8333333   0.1666667   0.2500000), wk =   0.0069444
        k(  252) = (   0.8333333   0.1666667   0.3750000), wk =   0.0069444
        k(  253) = (   0.8333333   0.1666667   0.5000000), wk =   0.0069444
        k(  254) = (   0.8333333   0.1666667   0.6250000), wk =   0.0069444
        k(  255) = (   0.8333333   0.1666667   0.7500000), wk =   0.0069444
        k(  256) = (   0.8333333   0.1666667   0.8750000), wk =   0.0069444
        k(  257) = (   0.8333333   0.3333333  -0.0000000), wk =   0.0069444
        k(  258) = (   0.8333333   0.3333333   0.1250000), wk =   0.0069444
        k(  259) = (   0.8333333   0.3333333   0.2500000), wk =   0.0069444
        k(  260) = (   0.8333333   0.3333333   0.3750000), wk =   0.0069444
        k(  261) = (   0.8333333   0.3333333   0.5000000), wk =   0.0069444
        k(  262) = (   0.8333333   0.3333333   0.6250000), wk =   0.0069444
        k(  263) = (   0.8333333   0.3333333   0.7500000), wk =   0.0069444
        k(  264) = (   0.8333333   0.3333333   0.8750000), wk =   0.0069444
        k(  265) = (   0.8333333   0.5000000  -0.0000000), wk =   0.0069444
        k(  266) = (   0.8333333   0.5000000   0.1250000), wk =   0.0069444
        k(  267) = (   0.8333333   0.5000000   0.2500000), wk =   0.0069444
        k(  268) = (   0.8333333   0.5000000   0.3750000), wk =   0.0069444
        k(  269) = (   0.8333333   0.5000000   0.5000000), wk =   0.0069444
        k(  270) = (   0.8333333   0.5000000   0.6250000), wk =   0.0069444
        k(  271) = (   0.8333333   0.5000000   0.7500000), wk =   0.0069444
        k(  272) = (   0.8333333   0.5000000   0.8750000), wk =   0.0069444
        k(  273) = (   0.8333333   0.6666667   0.0000000), wk =   0.0069444
        k(  274) = (   0.8333333   0.6666667   0.1250000), wk =   0.0069444
        k(  275) = (   0.8333333   0.6666667   0.2500000), wk =   0.0069444
        k(  276) = (   0.8333333   0.6666667   0.3750000), wk =   0.0069444
        k(  277) = (   0.8333333   0.6666667   0.5000000), wk =   0.0069444
        k(  278) = (   0.8333333   0.6666667   0.6250000), wk =   0.0069444
        k(  279) = (   0.8333333   0.6666667   0.7500000), wk =   0.0069444
        k(  280) = (   0.8333333   0.6666667   0.8750000), wk =   0.0069444
        k(  281) = (   0.8333333   0.8333333   0.0000000), wk =   0.0069444
        k(  282) = (   0.8333333   0.8333333   0.1250000), wk =   0.0069444
        k(  283) = (   0.8333333   0.8333333   0.2500000), wk =   0.0069444
        k(  284) = (   0.8333333   0.8333333   0.3750000), wk =   0.0069444
        k(  285) = (   0.8333333   0.8333333   0.5000000), wk =   0.0069444
        k(  286) = (   0.8333333   0.8333333   0.6250000), wk =   0.0069444
        k(  287) = (   0.8333333   0.8333333   0.7500000), wk =   0.0069444
        k(  288) = (   0.8333333   0.8333333   0.8750000), wk =   0.0069444

     Dense  grid:   328281 G-vectors     FFT dimensions: ( 100,  80,  96)

     Smooth grid:    63165 G-vectors     FFT dimensions: (  60,  45,  60)

     Dynamical RAM for                 wfc:       0.23 MB

     Dynamical RAM for     wfc (w. buffer):       0.23 MB

     Dynamical RAM for           str. fact:       0.28 MB

     Dynamical RAM for           local pot:       0.00 MB

     Dynamical RAM for          nlocal pot:       0.59 MB

     Dynamical RAM for                qrad:       4.65 MB

     Dynamical RAM for          rho,v,vnew:       0.97 MB

     Dynamical RAM for           G-vectors:       0.54 MB

     Dynamical RAM for          h,s,v(r/c):       0.02 MB

     Dynamical RAM for          <psi|beta>:       0.19 MB

     Dynamical RAM for                 psi:       0.47 MB

     Dynamical RAM for                hpsi:       0.47 MB

     Dynamical RAM for                spsi:       0.47 MB

     Dynamical RAM for      wfcinit/wfcrot:       0.60 MB

     Dynamical RAM for           addusdens:      27.00 MB

     Estimated static dynamical RAM per process >       8.58 MB

     Estimated max dynamical RAM per process >      35.58 MB

     Estimated total dynamical RAM >       1.25 GB

     Check: negative core charge=   -0.000003
     Cannot read rho : file not found

     Initial potential from superposition of free atoms

     negative rho (up, down):  2.665E-03 0.000E+00
     Starting wfcs are   72 randomized atomic wfcs

     Band Structure Calculation
     Davidson diagonalization with overlap

     Computing kpt #:     1  of   288
     total cpu time spent up to now is        3.8 secs

     Computing kpt #:     2  of   288
     total cpu time spent up to now is        4.4 secs

     Computing kpt #:     3  of   288
     total cpu time spent up to now is        4.9 secs

     Computing kpt #:     4  of   288
     total cpu time spent up to now is        5.3 secs

     Computing kpt #:     5  of   288
     total cpu time spent up to now is        5.7 secs

     Computing kpt #:     6  of   288
     total cpu time spent up to now is        6.1 secs

     Computing kpt #:     7  of   288
     total cpu time spent up to now is        6.6 secs

     Computing kpt #:     8  of   288
     total cpu time spent up to now is        7.2 secs

     Computing kpt #:     9  of   288
     total cpu time spent up to now is        7.7 secs

     Computing kpt #:    10  of   288
     total cpu time spent up to now is        8.4 secs

     Computing kpt #:    11  of   288
     total cpu time spent up to now is        8.9 secs

     Computing kpt #:    12  of   288
     total cpu time spent up to now is        9.4 secs

     Computing kpt #:    13  of   288
     total cpu time spent up to now is        9.8 secs

     Computing kpt #:    14  of   288
     total cpu time spent up to now is       10.3 secs

     Computing kpt #:    15  of   288
     total cpu time spent up to now is       10.9 secs

     Computing kpt #:    16  of   288
     total cpu time spent up to now is       11.4 secs

     Computing kpt #:    17  of   288
     total cpu time spent up to now is       11.8 secs

     Computing kpt #:    18  of   288
     total cpu time spent up to now is       12.3 secs

     Computing kpt #:    19  of   288
     total cpu time spent up to now is       12.9 secs

     Computing kpt #:    20  of   288
     total cpu time spent up to now is       13.4 secs

     Computing kpt #:    21  of   288
     total cpu time spent up to now is       13.9 secs

     Computing kpt #:    22  of   288
     total cpu time spent up to now is       14.5 secs

     Computing kpt #:    23  of   288
     total cpu time spent up to now is       15.0 secs

     Computing kpt #:    24  of   288
     total cpu time spent up to now is       15.5 secs

     Computing kpt #:    25  of   288
     total cpu time spent up to now is       15.9 secs

     Computing kpt #:    26  of   288
     total cpu time spent up to now is       16.3 secs

     Computing kpt #:    27  of   288
     total cpu time spent up to now is       16.8 secs

     Computing kpt #:    28  of   288
     total cpu time spent up to now is       17.3 secs

     Computing kpt #:    29  of   288
     total cpu time spent up to now is       17.9 secs

     Computing kpt #:    30  of   288
     total cpu time spent up to now is       18.4 secs

     Computing kpt #:    31  of   288
     total cpu time spent up to now is       18.8 secs

     Computing kpt #:    32  of   288
     total cpu time spent up to now is       19.2 secs

     Computing kpt #:    33  of   288
     total cpu time spent up to now is       19.6 secs

     Computing kpt #:    34  of   288
     total cpu time spent up to now is       20.2 secs

     Computing kpt #:    35  of   288
     total cpu time spent up to now is       20.7 secs

     Computing kpt #:    36  of   288
     total cpu time spent up to now is       21.3 secs

     Computing kpt #:    37  of   288
     total cpu time spent up to now is       21.9 secs

     Computing kpt #:    38  of   288
     total cpu time spent up to now is       22.4 secs

     Computing kpt #:    39  of   288
     total cpu time spent up to now is       23.0 secs

     Computing kpt #:    40  of   288
     total cpu time spent up to now is       23.5 secs

     Computing kpt #:    41  of   288
     total cpu time spent up to now is       24.0 secs

     Computing kpt #:    42  of   288
     total cpu time spent up to now is       24.6 secs

     Computing kpt #:    43  of   288
     total cpu time spent up to now is       25.2 secs

     Computing kpt #:    44  of   288
     total cpu time spent up to now is       25.7 secs

     Computing kpt #:    45  of   288
     total cpu time spent up to now is       26.1 secs

     Computing kpt #:    46  of   288
     total cpu time spent up to now is       26.6 secs

     Computing kpt #:    47  of   288
     total cpu time spent up to now is       27.2 secs

     Computing kpt #:    48  of   288
     total cpu time spent up to now is       27.8 secs

     Computing kpt #:    49  of   288
     total cpu time spent up to now is       28.3 secs

     Computing kpt #:    50  of   288
     total cpu time spent up to now is       28.8 secs

     Computing kpt #:    51  of   288
     total cpu time spent up to now is       29.4 secs

     Computing kpt #:    52  of   288
     total cpu time spent up to now is       29.8 secs

     Computing kpt #:    53  of   288
     total cpu time spent up to now is       30.3 secs

     Computing kpt #:    54  of   288
     total cpu time spent up to now is       30.8 secs

     Computing kpt #:    55  of   288
     total cpu time spent up to now is       31.4 secs

     Computing kpt #:    56  of   288
     total cpu time spent up to now is       31.9 secs

     Computing kpt #:    57  of   288
     total cpu time spent up to now is       32.4 secs

     Computing kpt #:    58  of   288
     total cpu time spent up to now is       33.0 secs

     Computing kpt #:    59  of   288
     total cpu time spent up to now is       33.6 secs

     Computing kpt #:    60  of   288
     total cpu time spent up to now is       34.1 secs

     Computing kpt #:    61  of   288
     total cpu time spent up to now is       34.6 secs

     Computing kpt #:    62  of   288
     total cpu time spent up to now is       35.1 secs

     Computing kpt #:    63  of   288
     total cpu time spent up to now is       35.7 secs

     Computing kpt #:    64  of   288
     total cpu time spent up to now is       36.2 secs

     Computing kpt #:    65  of   288
     total cpu time spent up to now is       36.7 secs

     Computing kpt #:    66  of   288
     total cpu time spent up to now is       37.3 secs

     Computing kpt #:    67  of   288
     total cpu time spent up to now is       37.9 secs

     Computing kpt #:    68  of   288
     total cpu time spent up to now is       38.4 secs

     Computing kpt #:    69  of   288
     total cpu time spent up to now is       39.0 secs

     Computing kpt #:    70  of   288
     total cpu time spent up to now is       39.6 secs

     Computing kpt #:    71  of   288
     total cpu time spent up to now is       40.1 secs

     Computing kpt #:    72  of   288
     total cpu time spent up to now is       40.6 secs

     Computing kpt #:    73  of   288
     total cpu time spent up to now is       41.0 secs

     Computing kpt #:    74  of   288
     total cpu time spent up to now is       41.4 secs

     Computing kpt #:    75  of   288
     total cpu time spent up to now is       41.9 secs

     Computing kpt #:    76  of   288
     total cpu time spent up to now is       42.5 secs

     Computing kpt #:    77  of   288
     total cpu time spent up to now is       43.0 secs

     Computing kpt #:    78  of   288
     total cpu time spent up to now is       43.5 secs

     Computing kpt #:    79  of   288
     total cpu time spent up to now is       43.9 secs

     Computing kpt #:    80  of   288
     total cpu time spent up to now is       44.3 secs

     Computing kpt #:    81  of   288
     total cpu time spent up to now is       44.8 secs

     Computing kpt #:    82  of   288
     total cpu time spent up to now is       45.4 secs

     Computing kpt #:    83  of   288
     total cpu time spent up to now is       46.0 secs

     Computing kpt #:    84  of   288
     total cpu time spent up to now is       46.5 secs

     Computing kpt #:    85  of   288
     total cpu time spent up to now is       47.0 secs

     Computing kpt #:    86  of   288
     total cpu time spent up to now is       47.6 secs

     Computing kpt #:    87  of   288
     total cpu time spent up to now is       48.1 secs

     Computing kpt #:    88  of   288
     total cpu time spent up to now is       48.6 secs

     Computing kpt #:    89  of   288
     total cpu time spent up to now is       49.2 secs

     Computing kpt #:    90  of   288
     total cpu time spent up to now is       49.7 secs

     Computing kpt #:    91  of   288
     total cpu time spent up to now is       50.3 secs

     Computing kpt #:    92  of   288
     total cpu time spent up to now is       50.8 secs

     Computing kpt #:    93  of   288
     total cpu time spent up to now is       51.3 secs

     Computing kpt #:    94  of   288
     total cpu time spent up to now is       51.9 secs

     Computing kpt #:    95  of   288
     total cpu time spent up to now is       52.4 secs

     Computing kpt #:    96  of   288
     total cpu time spent up to now is       52.9 secs

     Computing kpt #:    97  of   288
     total cpu time spent up to now is       53.4 secs

     Computing kpt #:    98  of   288
     total cpu time spent up to now is       53.8 secs

     Computing kpt #:    99  of   288
     total cpu time spent up to now is       54.2 secs

     Computing kpt #:   100  of   288
     total cpu time spent up to now is       54.6 secs

     Computing kpt #:   101  of   288
     total cpu time spent up to now is       55.1 secs

     Computing kpt #:   102  of   288
     total cpu time spent up to now is       55.6 secs

     Computing kpt #:   103  of   288
     total cpu time spent up to now is       56.1 secs

     Computing kpt #:   104  of   288
     total cpu time spent up to now is       56.6 secs

     Computing kpt #:   105  of   288
     total cpu time spent up to now is       57.1 secs

     Computing kpt #:   106  of   288
     total cpu time spent up to now is       57.5 secs

     Computing kpt #:   107  of   288
     total cpu time spent up to now is       58.2 secs

     Computing kpt #:   108  of   288
     total cpu time spent up to now is       58.7 secs

     Computing kpt #:   109  of   288
     total cpu time spent up to now is       59.1 secs

     Computing kpt #:   110  of   288
     total cpu time spent up to now is       59.6 secs

     Computing kpt #:   111  of   288
     total cpu time spent up to now is       60.0 secs

     Computing kpt #:   112  of   288
     total cpu time spent up to now is       60.6 secs

     Computing kpt #:   113  of   288
     total cpu time spent up to now is       61.1 secs

     Computing kpt #:   114  of   288
     total cpu time spent up to now is       61.6 secs

     Computing kpt #:   115  of   288
     total cpu time spent up to now is       62.1 secs

     Computing kpt #:   116  of   288
     total cpu time spent up to now is       62.6 secs

     Computing kpt #:   117  of   288
     total cpu time spent up to now is       63.2 secs

     Computing kpt #:   118  of   288
     total cpu time spent up to now is       63.7 secs

     Computing kpt #:   119  of   288
     total cpu time spent up to now is       64.3 secs

     Computing kpt #:   120  of   288
     total cpu time spent up to now is       64.9 secs

     Computing kpt #:   121  of   288
     total cpu time spent up to now is       65.4 secs

     Computing kpt #:   122  of   288
     total cpu time spent up to now is       65.9 secs

     Computing kpt #:   123  of   288
     total cpu time spent up to now is       66.5 secs

     Computing kpt #:   124  of   288
     total cpu time spent up to now is       67.0 secs

     Computing kpt #:   125  of   288
     total cpu time spent up to now is       67.6 secs

     Computing kpt #:   126  of   288
     total cpu time spent up to now is       68.1 secs

     Computing kpt #:   127  of   288
     total cpu time spent up to now is       68.6 secs

     Computing kpt #:   128  of   288
     total cpu time spent up to now is       69.0 secs

     Computing kpt #:   129  of   288
     total cpu time spent up to now is       69.6 secs

     Computing kpt #:   130  of   288
     total cpu time spent up to now is       70.1 secs

     Computing kpt #:   131  of   288
     total cpu time spent up to now is       70.6 secs

     Computing kpt #:   132  of   288
     total cpu time spent up to now is       71.1 secs

     Computing kpt #:   133  of   288
     total cpu time spent up to now is       71.6 secs

     Computing kpt #:   134  of   288
     total cpu time spent up to now is       72.1 secs

     Computing kpt #:   135  of   288
     total cpu time spent up to now is       72.7 secs

     Computing kpt #:   136  of   288
     total cpu time spent up to now is       73.3 secs

     Computing kpt #:   137  of   288
     total cpu time spent up to now is       73.7 secs

     Computing kpt #:   138  of   288
     total cpu time spent up to now is       74.1 secs

     Computing kpt #:   139  of   288
     total cpu time spent up to now is       74.6 secs

     Computing kpt #:   140  of   288
     total cpu time spent up to now is       75.1 secs

     Computing kpt #:   141  of   288
     total cpu time spent up to now is       75.6 secs

     Computing kpt #:   142  of   288
     total cpu time spent up to now is       76.0 secs

     Computing kpt #:   143  of   288
     total cpu time spent up to now is       76.5 secs

     Computing kpt #:   144  of   288
     total cpu time spent up to now is       77.0 secs

     Computing kpt #:   145  of   288
     total cpu time spent up to now is       77.4 secs

     Computing kpt #:   146  of   288
     total cpu time spent up to now is       77.8 secs

     Computing kpt #:   147  of   288
     total cpu time spent up to now is       78.4 secs

     Computing kpt #:   148  of   288
     total cpu time spent up to now is       78.8 secs

     Computing kpt #:   149  of   288
     total cpu time spent up to now is       79.2 secs

     Computing kpt #:   150  of   288
     total cpu time spent up to now is       79.6 secs

     Computing kpt #:   151  of   288
     total cpu time spent up to now is       80.1 secs

     Computing kpt #:   152  of   288
     total cpu time spent up to now is       80.5 secs

     Computing kpt #:   153  of   288
     total cpu time spent up to now is       80.9 secs

     Computing kpt #:   154  of   288
     total cpu time spent up to now is       81.3 secs

     Computing kpt #:   155  of   288
     total cpu time spent up to now is       81.9 secs

     Computing kpt #:   156  of   288
     total cpu time spent up to now is       82.3 secs

     Computing kpt #:   157  of   288
     total cpu time spent up to now is       82.7 secs

     Computing kpt #:   158  of   288
     total cpu time spent up to now is       83.1 secs

     Computing kpt #:   159  of   288
     total cpu time spent up to now is       83.7 secs

     Computing kpt #:   160  of   288
     total cpu time spent up to now is       84.1 secs

     Computing kpt #:   161  of   288
     total cpu time spent up to now is       84.6 secs

     Computing kpt #:   162  of   288
     total cpu time spent up to now is       85.1 secs

     Computing kpt #:   163  of   288
     total cpu time spent up to now is       85.7 secs

     Computing kpt #:   164  of   288
     total cpu time spent up to now is       86.2 secs

     Computing kpt #:   165  of   288
     total cpu time spent up to now is       86.7 secs

     Computing kpt #:   166  of   288
     total cpu time spent up to now is       87.2 secs

     Computing kpt #:   167  of   288
     total cpu time spent up to now is       87.8 secs

     Computing kpt #:   168  of   288
     total cpu time spent up to now is       88.3 secs

     Computing kpt #:   169  of   288
     total cpu time spent up to now is       88.9 secs

     Computing kpt #:   170  of   288
     total cpu time spent up to now is       89.4 secs

     Computing kpt #:   171  of   288
     total cpu time spent up to now is       89.9 secs

     Computing kpt #:   172  of   288
     total cpu time spent up to now is       90.5 secs

     Computing kpt #:   173  of   288
     total cpu time spent up to now is       91.0 secs

     Computing kpt #:   174  of   288
     total cpu time spent up to now is       91.6 secs

     Computing kpt #:   175  of   288
     total cpu time spent up to now is       92.1 secs

     Computing kpt #:   176  of   288
     total cpu time spent up to now is       92.6 secs

     Computing kpt #:   177  of   288
     total cpu time spent up to now is       93.1 secs

     Computing kpt #:   178  of   288
     total cpu time spent up to now is       93.6 secs

     Computing kpt #:   179  of   288
     total cpu time spent up to now is       94.2 secs

     Computing kpt #:   180  of   288
     total cpu time spent up to now is       94.7 secs

     Computing kpt #:   181  of   288
     total cpu time spent up to now is       95.1 secs

     Computing kpt #:   182  of   288
     total cpu time spent up to now is       95.6 secs

     Computing kpt #:   183  of   288
     total cpu time spent up to now is       96.3 secs

     Computing kpt #:   184  of   288
     total cpu time spent up to now is       96.8 secs

     Computing kpt #:   185  of   288
     total cpu time spent up to now is       97.2 secs

     Computing kpt #:   186  of   288
     total cpu time spent up to now is       97.6 secs

     Computing kpt #:   187  of   288
     total cpu time spent up to now is       98.2 secs

     Computing kpt #:   188  of   288
     total cpu time spent up to now is       98.6 secs

     Computing kpt #:   189  of   288
     total cpu time spent up to now is       99.0 secs

     Computing kpt #:   190  of   288
     total cpu time spent up to now is       99.4 secs

     Computing kpt #:   191  of   288
     total cpu time spent up to now is      100.0 secs

     Computing kpt #:   192  of   288
     total cpu time spent up to now is      100.4 secs

     Computing kpt #:   193  of   288
     total cpu time spent up to now is      100.9 secs

     Computing kpt #:   194  of   288
     total cpu time spent up to now is      101.4 secs

     Computing kpt #:   195  of   288
     total cpu time spent up to now is      101.8 secs

     Computing kpt #:   196  of   288
     total cpu time spent up to now is      102.3 secs

     Computing kpt #:   197  of   288
     total cpu time spent up to now is      102.7 secs

     Computing kpt #:   198  of   288
     total cpu time spent up to now is      103.2 secs

     Computing kpt #:   199  of   288
     total cpu time spent up to now is      103.6 secs

     Computing kpt #:   200  of   288
     total cpu time spent up to now is      104.0 secs

     Computing kpt #:   201  of   288
     total cpu time spent up to now is      104.4 secs

     Computing kpt #:   202  of   288
     total cpu time spent up to now is      105.0 secs

     Computing kpt #:   203  of   288
     total cpu time spent up to now is      105.5 secs

     Computing kpt #:   204  of   288
     total cpu time spent up to now is      105.9 secs

     Computing kpt #:   205  of   288
     total cpu time spent up to now is      106.4 secs

     Computing kpt #:   206  of   288
     total cpu time spent up to now is      106.9 secs

     Computing kpt #:   207  of   288
     total cpu time spent up to now is      107.4 secs

     Computing kpt #:   208  of   288
     total cpu time spent up to now is      107.8 secs

     Computing kpt #:   209  of   288
     total cpu time spent up to now is      108.4 secs

     Computing kpt #:   210  of   288
     total cpu time spent up to now is      109.0 secs

     Computing kpt #:   211  of   288
     total cpu time spent up to now is      109.6 secs

     Computing kpt #:   212  of   288
     total cpu time spent up to now is      110.2 secs

     Computing kpt #:   213  of   288
     total cpu time spent up to now is      110.7 secs

     Computing kpt #:   214  of   288
     total cpu time spent up to now is      111.2 secs

     Computing kpt #:   215  of   288
     total cpu time spent up to now is      111.7 secs

     Computing kpt #:   216  of   288
     total cpu time spent up to now is      112.2 secs

     Computing kpt #:   217  of   288
     total cpu time spent up to now is      112.7 secs

     Computing kpt #:   218  of   288
     total cpu time spent up to now is      113.1 secs

     Computing kpt #:   219  of   288
     total cpu time spent up to now is      113.6 secs

     Computing kpt #:   220  of   288
     total cpu time spent up to now is      114.1 secs

     Computing kpt #:   221  of   288
     total cpu time spent up to now is      114.7 secs

     Computing kpt #:   222  of   288
     total cpu time spent up to now is      115.2 secs

     Computing kpt #:   223  of   288
     total cpu time spent up to now is      115.8 secs

     Computing kpt #:   224  of   288
     total cpu time spent up to now is      116.3 secs

     Computing kpt #:   225  of   288
     total cpu time spent up to now is      116.8 secs

     Computing kpt #:   226  of   288
     total cpu time spent up to now is      117.4 secs

     Computing kpt #:   227  of   288
     total cpu time spent up to now is      118.0 secs

     Computing kpt #:   228  of   288
     total cpu time spent up to now is      118.6 secs

     Computing kpt #:   229  of   288
     total cpu time spent up to now is      119.1 secs

     Computing kpt #:   230  of   288
     total cpu time spent up to now is      119.6 secs

     Computing kpt #:   231  of   288
     total cpu time spent up to now is      120.1 secs

     Computing kpt #:   232  of   288
     total cpu time spent up to now is      120.6 secs

     Computing kpt #:   233  of   288
     total cpu time spent up to now is      121.0 secs

     Computing kpt #:   234  of   288
     total cpu time spent up to now is      121.5 secs

     Computing kpt #:   235  of   288
     total cpu time spent up to now is      122.0 secs

     Computing kpt #:   236  of   288
     total cpu time spent up to now is      122.5 secs

     Computing kpt #:   237  of   288
     total cpu time spent up to now is      122.9 secs

     Computing kpt #:   238  of   288
     total cpu time spent up to now is      123.4 secs

     Computing kpt #:   239  of   288
     total cpu time spent up to now is      123.9 secs

     Computing kpt #:   240  of   288
     total cpu time spent up to now is      124.3 secs

     Computing kpt #:   241  of   288
     total cpu time spent up to now is      124.8 secs

     Computing kpt #:   242  of   288
     total cpu time spent up to now is      125.4 secs

     Computing kpt #:   243  of   288
     total cpu time spent up to now is      125.9 secs

     Computing kpt #:   244  of   288
     total cpu time spent up to now is      126.4 secs

     Computing kpt #:   245  of   288
     total cpu time spent up to now is      126.9 secs

     Computing kpt #:   246  of   288
     total cpu time spent up to now is      127.3 secs

     Computing kpt #:   247  of   288
     total cpu time spent up to now is      127.9 secs

     Computing kpt #:   248  of   288
     total cpu time spent up to now is      128.4 secs

     Computing kpt #:   249  of   288
     total cpu time spent up to now is      128.9 secs

     Computing kpt #:   250  of   288
     total cpu time spent up to now is      129.5 secs

     Computing kpt #:   251  of   288
     total cpu time spent up to now is      130.1 secs

     Computing kpt #:   252  of   288
     total cpu time spent up to now is      130.6 secs

     Computing kpt #:   253  of   288
     total cpu time spent up to now is      131.1 secs

     Computing kpt #:   254  of   288
     total cpu time spent up to now is      131.6 secs

     Computing kpt #:   255  of   288
     total cpu time spent up to now is      132.3 secs

     Computing kpt #:   256  of   288
     total cpu time spent up to now is      132.8 secs

     Computing kpt #:   257  of   288
     total cpu time spent up to now is      133.3 secs

     Computing kpt #:   258  of   288
     total cpu time spent up to now is      133.8 secs

     Computing kpt #:   259  of   288
     total cpu time spent up to now is      134.3 secs

     Computing kpt #:   260  of   288
     total cpu time spent up to now is      134.8 secs

     Computing kpt #:   261  of   288
     total cpu time spent up to now is      135.4 secs

     Computing kpt #:   262  of   288
     total cpu time spent up to now is      135.9 secs

     Computing kpt #:   263  of   288
     total cpu time spent up to now is      136.5 secs

     Computing kpt #:   264  of   288
     total cpu time spent up to now is      137.0 secs

     Computing kpt #:   265  of   288
     total cpu time spent up to now is      137.4 secs

     Computing kpt #:   266  of   288
     total cpu time spent up to now is      137.9 secs

     Computing kpt #:   267  of   288
     total cpu time spent up to now is      138.3 secs

     Computing kpt #:   268  of   288
     total cpu time spent up to now is      138.8 secs

     Computing kpt #:   269  of   288
     total cpu time spent up to now is      139.3 secs

     Computing kpt #:   270  of   288
     total cpu time spent up to now is      139.8 secs

     Computing kpt #:   271  of   288
     total cpu time spent up to now is      140.3 secs

     Computing kpt #:   272  of   288
     total cpu time spent up to now is      140.8 secs

     Computing kpt #:   273  of   288
     total cpu time spent up to now is      141.3 secs

     Computing kpt #:   274  of   288
     total cpu time spent up to now is      141.8 secs

     Computing kpt #:   275  of   288
     total cpu time spent up to now is      142.3 secs

     Computing kpt #:   276  of   288
     total cpu time spent up to now is      142.9 secs

     Computing kpt #:   277  of   288
     total cpu time spent up to now is      143.4 secs

     Computing kpt #:   278  of   288
     total cpu time spent up to now is      144.0 secs

     Computing kpt #:   279  of   288
     total cpu time spent up to now is      144.5 secs

     Computing kpt #:   280  of   288
     total cpu time spent up to now is      145.1 secs

     Computing kpt #:   281  of   288
     total cpu time spent up to now is      145.6 secs

     Computing kpt #:   282  of   288
     total cpu time spent up to now is      146.2 secs

     Computing kpt #:   283  of   288
     total cpu time spent up to now is      146.7 secs

     Computing kpt #:   284  of   288
     total cpu time spent up to now is      147.3 secs

     Computing kpt #:   285  of   288
     total cpu time spent up to now is      147.8 secs

     Computing kpt #:   286  of   288
     total cpu time spent up to now is      148.3 secs

     Computing kpt #:   287  of   288
     total cpu time spent up to now is      148.9 secs

     Computing kpt #:   288  of   288
     total cpu time spent up to now is      149.4 secs

     ethr =  5.00E-11,  avg # of iterations = 27.9

     total cpu time spent up to now is      149.4 secs

     End of band structure calculation

          k = 0.0000 0.0000 0.0000 (  7907 PWs)   bands (ev):

   -52.2093 -52.1968 -52.1431 -52.1422 -26.6050 -26.5552 -26.3490 -26.3366
   -26.2711 -26.2179 -26.1686 -26.1515 -26.0526 -26.0524 -26.0374 -26.0095
   -10.9256  -9.8567  -9.8464  -9.6283  -9.2437  -9.2099  -9.2089  -9.2082
[...]
   -10.1542 -10.1542  -9.6493  -9.6493  -9.4883  -9.4883  -9.3344  -9.3344
     2.9513   2.9513   3.1113   3.1113   3.1481   3.1481   3.8223   3.8223
     4.4237   4.4237   4.6254   4.6254   4.7385   4.7385   5.0143   5.0143
     5.6536   5.6536   6.0733   6.0733   6.5152   6.5152   6.6509   6.6509
    12.1161  12.1161  12.8528  12.8528  13.1700  13.1700  13.4344  13.4344
    13.7959  13.7959  14.1171  14.1171  15.2456  15.2456  15.5223  15.5223
    15.8604  15.8604  16.3588  16.3588  19.3098  19.3098

          k = 0.8333-0.0369 0.9223 (  7894 PWs)   bands (ev):

   -52.2018 -52.2018 -52.1439 -52.1439 -26.5580 -26.5580 -26.3153 -26.3153
   -26.2537 -26.2537 -26.1859 -26.1859 -26.0577 -26.0577 -26.0396 -26.0396
   -10.1542 -10.1542  -9.6328  -9.6328  -9.5000  -9.5000  -9.3405  -9.3405
     2.9532   2.9532   3.0847   3.0847   3.2065   3.2065   3.9407   3.9407
     4.3189   4.3189   4.5156   4.5156   4.7604   4.7604   5.0172   5.0172
     5.6396   5.6396   6.0780   6.0780   6.5433   6.5433   6.6616   6.6616
    12.1263  12.1263  12.8944  12.8944  13.1459  13.1459  13.4649  13.4649
    13.7948  13.7948  14.1186  14.1186  15.1797  15.1797  15.6032  15.6032
    15.9395  15.9395  16.2182  16.2182  19.2806  19.2806

          k = 0.8333-0.1476 1.0329 (  7894 PWs)   bands (ev):

   -52.2018 -52.2018 -52.1439 -52.1439 -26.5599 -26.5599 -26.3237 -26.3237
   -26.2525 -26.2525 -26.1765 -26.1765 -26.0575 -26.0575 -26.0396 -26.0396
   -10.1570 -10.1570  -9.7241  -9.7241  -9.4091  -9.4091  -9.3342  -9.3342
     2.8795   2.8795   3.0208   3.0208   3.2563   3.2563   4.0177   4.0177
     4.3055   4.3055   4.6137   4.6137   4.7779   4.7779   5.1499   5.1499
     5.6552   5.6552   5.9960   5.9960   6.4596   6.4596   6.5498   6.5498
    12.0657  12.0657  12.7082  12.7082  13.3040  13.3040  13.4823  13.4823
    13.8155  13.8155  14.0749  14.0749  15.1740  15.1740  15.5779  15.5779
    15.8977  15.8977  16.3360  16.3360  19.4913  19.4913

          k = 0.8333-0.2582 1.1436 (  7878 PWs)   bands (ev):

   -52.2017 -52.2017 -52.1439 -52.1439 -26.5632 -26.5632 -26.3359 -26.3359
   -26.2489 -26.2489 -26.1647 -26.1647 -26.0567 -26.0567 -26.0400 -26.0400
   -10.1608 -10.1608  -9.8051  -9.8051  -9.3461  -9.3461  -9.3069  -9.3069
     2.7225   2.7225   2.9688   2.9688   3.3636   3.3636   4.0130   4.0130
     4.3595   4.3595   4.7325   4.7325   4.9352   4.9352   5.3232   5.3232
     5.6595   5.6595   5.9112   5.9112   6.2277   6.2277   6.4278   6.4278
    11.9646  11.9646  12.5385  12.5385  13.3007  13.3007  13.5892  13.5892
    13.8470  13.8470  14.0332  14.0332  15.1064  15.1064  15.6132  15.6132
    15.8153  15.8153  16.5473  16.5473  19.8626  19.8626

          k = 0.8333-0.3689 1.2543 (  7868 PWs)   bands (ev):

   -52.2017 -52.2017 -52.1440 -52.1440 -26.5657 -26.5657 -26.3447 -26.3447
   -26.2453 -26.2453 -26.1570 -26.1570 -26.0558 -26.0558 -26.0405 -26.0405
   -10.1633 -10.1633  -9.8528  -9.8528  -9.3327  -9.3327  -9.2653  -9.2653
     2.5876   2.5876   2.9782   2.9782   3.4039   3.4039   4.0503   4.0503
     4.3414   4.3414   4.8337   4.8337   5.1577   5.1577   5.4369   5.4369
     5.6631   5.6631   5.8174   5.8174   6.0275   6.0275   6.3334   6.3334
    11.8805  11.8805  12.4281  12.4281  13.2361  13.2361  13.6708  13.6708
    13.8741  13.8741  14.0327  14.0327  15.0142  15.0142  15.6818  15.6818
    15.7652  15.7652  16.7046  16.7046  20.2300  20.2300

          k = 0.8333-0.4796 1.3649 (  7860 PWs)   bands (ev):

   -52.2017 -52.2017 -52.1440 -52.1440 -26.5661 -26.5661 -26.3460 -26.3460
   -26.2441 -26.2441 -26.1566 -26.1566 -26.0552 -26.0552 -26.0409 -26.0409
   -10.1634 -10.1634  -9.8576  -9.8576  -9.3365  -9.3365  -9.2555  -9.2555
     2.5659   2.5659   2.9807   2.9807   3.3898   3.3898   4.0325   4.0325
     4.3306   4.3306   4.8795   4.8795   5.2135   5.2135   5.5177   5.5177
     5.6127   5.6127   5.8137   5.8137   5.9884   5.9884   6.3178   6.3178
    11.8679  11.8679  12.4071  12.4071  13.2036  13.2036  13.6641  13.6641
    13.8816  13.8816  14.0539  14.0539  15.0001  15.0001  15.6927  15.6927
    15.7412  15.7412  16.7621  16.7621  20.2869  20.2869

          k = 0.8333-0.5902 1.4756 (  7868 PWs)   bands (ev):

   -52.2017 -52.2017 -52.1439 -52.1439 -26.5643 -26.5643 -26.3395 -26.3395
   -26.2457 -26.2457 -26.1635 -26.1635 -26.0554 -26.0554 -26.0409 -26.0409
   -10.1611 -10.1611  -9.8185  -9.8185  -9.3575  -9.3575  -9.2790  -9.2790
     2.6729   2.6729   2.9588   2.9588   3.3554   3.3554   3.8988   3.8988
     4.3939   4.3939   4.8524   4.8524   5.0382   5.0382   5.3812   5.3812
     5.6825   5.6825   5.9482   5.9482   6.0819   6.0819   6.4056   6.4056
    11.9360  11.9360  12.4877  12.4877  13.2226  13.2226  13.5827  13.5827
    13.8604  13.8604  14.0698  14.0698  15.0965  15.0965  15.5947  15.5947
    15.7660  15.7660  16.7073  16.7073  19.9607  19.9607

          k = 0.8333-0.7009 1.5863 (  7888 PWs)   bands (ev):

   -52.2018 -52.2018 -52.1439 -52.1439 -26.5611 -26.5611 -26.3279 -26.3279
   -26.2490 -26.2490 -26.1751 -26.1751 -26.0562 -26.0562 -26.0405 -26.0405
   -10.1572 -10.1572  -9.7431  -9.7431  -9.4077  -9.4077  -9.3134  -9.3134
     2.8780   2.8780   2.9470   2.9470   3.2666   3.2666   3.8076   3.8076
     4.4499   4.4499   4.7520   4.7520   4.8638   4.8638   5.1598   5.1598
     5.6864   5.6864   5.9968   5.9968   6.3583   6.3583   6.5383   6.5383
    12.0394  12.0394  12.6513  12.6513  13.2624  13.2624  13.4570  13.4570
    13.8232  13.8232  14.0899  14.0899  15.2604  15.2604  15.4588  15.4588
    15.8071  15.8071  16.5568  16.5568  19.5690  19.5690

          k = 0.8333 0.2213 0.9591 (  7895 PWs)   bands (ev):

   -52.2045 -52.1990 -52.1445 -52.1433 -26.5707 -26.5490 -26.3300 -26.3144
   -26.2640 -26.2380 -26.1876 -26.1702 -26.0577 -26.0562 -26.0450 -26.0351
   -10.5007  -9.8498  -9.7385  -9.6142  -9.5268  -9.3926  -9.3198  -9.2856
     2.6793   2.8878   2.9770   3.1721   3.2945   3.3365   3.5800   4.0481
     4.1758   4.3637   4.5223   4.7131   4.7665   4.8491   4.9746   5.4077
     5.5014   5.9075   6.0134   6.0648   6.4130   6.4620   6.5085   6.9068
    11.9897  12.1170  12.6493  12.8171  13.1453  13.2097  13.3994  13.5126
    13.6265  14.0360  14.0879  14.1816  15.1677  15.2357  15.3129  15.5068
    15.7902  16.0873  16.4190  16.5745  18.3090  20.3490

          k = 0.8333 0.1107 1.0698 (  7889 PWs)   bands (ev):

   -52.2046 -52.1990 -52.1441 -52.1436 -26.5716 -26.5472 -26.3264 -26.3163
   -26.2662 -26.2374 -26.1865 -26.1718 -26.0579 -26.0567 -26.0452 -26.0345
   -10.5101  -9.8359  -9.7386  -9.6216  -9.5141  -9.3901  -9.3279  -9.2898
     2.7094   2.8910   2.9785   3.1870   3.2791   3.2848   3.6315   4.0467
     4.1963   4.3574   4.5047   4.7004   4.7532   4.8953   4.9049   5.3682
     5.4659   5.9467   6.0015   6.0690   6.4290   6.4606   6.5404   6.9272
    12.0158  12.1002  12.6703  12.7772  13.1301  13.3249  13.4300  13.5070
    13.5510  14.0066  14.0808  14.2037  15.1584  15.2651  15.2941  15.5763
    15.6863  16.3136  16.3444  16.4494  18.2708  20.3221

          k = 0.8333 0.0000 1.1805 (  7908 PWs)   bands (ev):

   -52.2043 -52.1993 -52.1440 -52.1438 -26.5724 -26.5486 -26.3363 -26.3142
   -26.2645 -26.2376 -26.1873 -26.1628 -26.0573 -26.0568 -26.0448 -26.0351
   -10.4675  -9.8618  -9.8145  -9.6091  -9.5236  -9.3849  -9.2910  -9.2794
     2.6106   2.9028   3.0682   3.2070   3.3163   3.3370   3.6500   4.0166
     4.1206   4.4724   4.5679   4.7097   4.7843   4.9125   5.0168   5.3392
     5.5523   5.7706   5.9945   6.0838   6.3020   6.3484   6.5066   6.8087
    11.9390  12.0891  12.5717  12.8531  13.1547  13.2545  13.4379  13.5742
    13.6542  13.9926  14.0896  14.1856  15.0710  15.1835  15.3143  15.6928
    15.8022  16.0937  16.3068  16.5908  18.5235  20.4707

          k = 0.8333-0.1107 1.2912 (  7899 PWs)   bands (ev):

   -52.2035 -52.2000 -52.1444 -52.1435 -26.5721 -26.5526 -26.3434 -26.3213
   -26.2591 -26.2391 -26.1795 -26.1572 -26.0568 -26.0560 -26.0439 -26.0366
   -10.3784  -9.9384  -9.8713  -9.6960  -9.4446  -9.3651  -9.2974  -9.2457
     2.5384   2.9548   3.0394   3.1619   3.3686   3.4137   3.6905   4.0990
     4.1509   4.5837   4.5865   4.7013   4.8224   5.0628   5.1787   5.3576
     5.5521   5.6960   5.9482   5.9672   6.0601   6.2842   6.4011   6.5950
    11.8664  12.0489  12.5145  12.7732  13.1562  13.3384  13.4703  13.6374
    13.7284  14.0150  14.0636  14.1123  14.9921  15.1696  15.4081  15.7187
    15.7399  16.1107  16.2075  16.7183  18.9963  20.6312

          k = 0.8333-0.2213 1.4018 (  7890 PWs)   bands (ev):

   -52.2025 -52.2010 -52.1447 -52.1432 -26.5698 -26.5579 -26.3435 -26.3329
   -26.2519 -26.2419 -26.1681 -26.1585 -26.0562 -26.0552 -26.0427 -26.0385
   -10.2549 -10.0680  -9.8803  -9.7643  -9.3871  -9.3427  -9.2973  -9.2458
     2.5699   2.8161   3.0140   3.1783   3.3697   3.4288   3.8998   4.1244
     4.1982   4.4798   4.6913   4.7730   4.9411   5.1577   5.2717   5.4548
     5.5037   5.6717   5.8394   5.8947   5.8994   6.2456   6.2855   6.3741
    11.8686  11.9833  12.4844  12.6667  13.1756  13.3900  13.5252  13.6841
    13.7939  13.9582  13.9970  14.0970  15.0037  15.1276  15.5576  15.6497
    15.6954  15.9270  16.4009  16.7525  19.5861  20.3347

          k = 0.8333-0.3320 1.5125 (  7883 PWs)   bands (ev):

   -52.2021 -52.2014 -52.1449 -52.1430 -26.5659 -26.5625 -26.3421 -26.3362
   -26.2468 -26.2451 -26.1676 -26.1585 -26.0556 -26.0551 -26.0419 -26.0397
   -10.2086 -10.1141  -9.8811  -9.7719  -9.3884  -9.3271  -9.2996  -9.2496
     2.6248   2.7144   3.0251   3.2093   3.3516   3.4087   3.8802   4.0963
     4.2680   4.4192   4.7328   4.8346   5.0129   5.1579   5.2961   5.3688
     5.5811   5.6974   5.7243   5.9309   6.0091   6.1188   6.2423   6.3739
    11.9081  11.9467  12.4904  12.6261  13.2328  13.2977  13.5740  13.6795
    13.8214  13.8954  13.9964  14.1158  15.0070  15.1437  15.5458  15.6310
    15.7527  15.8105  16.5202  16.7257  19.7578  20.1874

          k = 0.8333-0.4427 1.6232 (  7898 PWs)   bands (ev):

   -52.2031 -52.2003 -52.1449 -52.1430 -26.5674 -26.5589 -26.3446 -26.3248
   -26.2528 -26.2407 -26.1791 -26.1564 -26.0558 -26.0553 -26.0428 -26.0386
   -10.3387  -9.9789  -9.8752  -9.7127  -9.4359  -9.3522  -9.3000  -9.2429
     2.5412   2.8774   3.0625   3.1843   3.3581   3.3641   3.6319   4.0985
     4.1960   4.5859   4.5941   4.8088   4.9229   5.0471   5.2612   5.3784
     5.5533   5.7158   5.9267   5.9823   6.0707   6.1748   6.3255   6.5439
    11.8742  12.0401  12.5185  12.6986  13.1542  13.3490  13.4601  13.5910
    13.7947  13.9780  14.0490  14.1260  14.9830  15.2757  15.3853  15.5881
    15.7123  15.9864  16.4413  16.7399  19.1500  20.5975

          k = 0.8333-0.5534 1.7338 (  7907 PWs)   bands (ev):

   -52.2040 -52.1995 -52.1448 -52.1431 -26.5695 -26.5532 -26.3397 -26.3154
   -26.2589 -26.2387 -26.1878 -26.1612 -26.0568 -26.0556 -26.0441 -26.0367
   -10.4408  -9.8924  -9.8180  -9.6259  -9.5121  -9.3861  -9.2901  -9.2662
     2.5740   2.8802   3.1040   3.2225   3.2953   3.3323   3.5490   4.0091
     4.1798   4.4682   4.6252   4.7324   4.8000   4.9107   5.1095   5.4075
     5.6037   5.7530   5.9946   6.0648   6.2462   6.3271   6.4448   6.7566
    11.9118  12.1030  12.5669  12.8357  13.1378  13.1909  13.4610  13.4972
    13.7408  14.0347  14.1006  14.1382  15.0722  15.2111  15.3204  15.6248
    15.7547  16.0232  16.3719  16.7085  18.6307  20.5293

          k = 0.8333 0.3689 1.1067 (  7907 PWs)   bands (ev):

   -52.2066 -52.1970 -52.1449 -52.1429 -26.5808 -26.5443 -26.3402 -26.3233
   -26.2706 -26.2262 -26.1772 -26.1570 -26.0575 -26.0556 -26.0486 -26.0317
   -10.7488  -9.8562  -9.7743  -9.6072  -9.3857  -9.2992  -9.2666  -9.2399
     2.3366   2.8840   2.9258   3.1362   3.2459   3.4437   3.5593   3.9380
     4.2505   4.4122   4.4900   4.6663   4.8776   4.9518   5.1083   5.3194
     5.7121   5.8837   5.9502   6.2990   6.3229   6.3787   6.4430   7.1395
    11.8177  12.0521  12.5249  12.5870  13.0084  13.1799  13.3543  13.5924
    13.7666  14.0172  14.0426  14.4415  15.0014  15.0659  15.1640  15.6561
    15.7017  16.3775  16.6217  16.6857  17.6090  21.0274

          k = 0.8333 0.2582 1.2174 (  7910 PWs)   bands (ev):

   -52.2067 -52.1969 -52.1443 -52.1435 -26.5831 -26.5416 -26.3388 -26.3260
   -26.2719 -26.2244 -26.1757 -26.1576 -26.0572 -26.0558 -26.0496 -26.0312
   -10.7646  -9.8358  -9.8016  -9.6037  -9.3738  -9.2961  -9.2590  -9.2388
     2.3268   2.8950   2.9697   3.1094   3.1419   3.4634   3.4992   4.0891
     4.0994   4.3957   4.5633   4.7279   4.8368   4.9929   5.0916   5.3104
     5.7164   5.8654   5.9794   6.2410   6.3897   6.4154   6.4465   7.1572
    11.8208  12.0271  12.4616  12.5936  12.9735  13.2413  13.3162  13.6159
    13.7072  13.9896  14.0673  14.4589  14.9858  15.0671  15.2432  15.5647
    15.7187  16.5014  16.6136  16.6864  17.5692  21.0580

          k = 0.8333 0.1476 1.3280 (  7901 PWs)   bands (ev):

   -52.2061 -52.1975 -52.1441 -52.1437 -26.5818 -26.5413 -26.3409 -26.3189
   -26.2705 -26.2263 -26.1828 -26.1576 -26.0563 -26.0558 -26.0492 -26.0322
   -10.6901  -9.8727  -9.7414  -9.5988  -9.4801  -9.3275  -9.2516  -9.2350
     2.3946   2.9726   3.1173   3.1604   3.2759   3.4129   3.5763   3.8538
     4.1220   4.4635   4.6695   4.7139   4.7988   4.9631   5.1383   5.3115
     5.4976   5.8312   5.9626   6.1021   6.3251   6.3332   6.4137   7.0598
    11.8249  12.0462  12.4928  12.7599  12.9870  13.3393  13.3886  13.4687
    13.7526  13.9785  14.1134  14.3910  14.9632  15.1031  15.3200  15.5394
    15.7268  16.2892  16.5779  16.7301  17.8044  20.7468

          k = 0.8333 0.0369 1.4387 (  7901 PWs)   bands (ev):

   -52.2048 -52.1987 -52.1448 -52.1431 -26.5773 -26.5439 -26.3384 -26.3141
   -26.2662 -26.2321 -26.1873 -26.1623 -26.0561 -26.0553 -26.0474 -26.0343
   -10.5346  -9.8911  -9.7634  -9.5966  -9.5624  -9.3625  -9.2800  -9.2445
     2.5395   3.0904   3.2285   3.3138   3.3939   3.5447   3.5817   3.8261
     4.0583   4.5082   4.6144   4.6986   4.8722   4.9587   5.0657   5.2377
     5.3353   5.6254   5.9604   6.0360   6.1247   6.2073   6.3615   6.8817
    11.8781  12.0843  12.5989  12.9651  13.0819  13.3236  13.4592  13.5003
    13.7477  13.9862  14.1478  14.2324  15.0042  15.1935  15.2856  15.6450
    15.7583  15.9904  16.3917  16.6775  18.3107  20.4922

          k = 0.8333-0.0738 1.5494 (  7893 PWs)   bands (ev):

   -52.2031 -52.2004 -52.1453 -52.1426 -26.5704 -26.5498 -26.3305 -26.3177
   -26.2587 -26.2408 -26.1834 -26.1718 -26.0560 -26.0550 -26.0444 -26.0373
   -10.3189 -10.0046  -9.8369  -9.6480  -9.4947  -9.3706  -9.3058  -9.2853
     2.7549   3.1056   3.2686   3.3214   3.3936   3.5791   3.8310   3.9727
     4.1541   4.3986   4.6069   4.6780   4.8537   4.9208   5.0220   5.0961
     5.1974   5.5719   5.8422   5.9876   6.0302   6.0778   6.4051   6.6767
    11.9797  12.0921  12.7164  13.0256  13.2452  13.3487  13.4911  13.5873
    13.7334  13.9587  14.0389  14.1514  15.1219  15.1938  15.4374  15.5798
    15.7170  15.9972  16.1028  16.5332  18.9925  19.9727

          k = 0.8333-0.1845 1.6601 (  7895 PWs)   bands (ev):

   -52.2023 -52.2011 -52.1456 -52.1424 -26.5629 -26.5577 -26.3275 -26.3203
   -26.2505 -26.2489 -26.1839 -26.1721 -26.0558 -26.0553 -26.0417 -26.0396
   -10.2385 -10.0755  -9.8523  -9.6414  -9.4771  -9.3702  -9.3267  -9.2876
     2.8612   2.9848   3.2831   3.3491   3.3846   3.6531   3.7247   4.0338
     4.2454   4.3877   4.6346   4.6883   4.7581   4.9264   5.0083   5.1056
     5.1774   5.6114   5.7486   5.9590   6.0325   6.0601   6.4926   6.5857
    12.0328  12.0737  12.7875  12.9644  13.3599  13.3763  13.4523  13.6303
    13.7331  13.8556  14.0354  14.1520  15.1072  15.2778  15.4340  15.5259
    15.7659  15.8887  16.1991  16.3977  19.2350  19.7433

          k = 0.8333-0.2951 1.7707 (  7907 PWs)   bands (ev):

   -52.2042 -52.1993 -52.1456 -52.1423 -26.5674 -26.5547 -26.3367 -26.3140
   -26.2591 -26.2394 -26.1891 -26.1624 -26.0562 -26.0556 -26.0440 -26.0367
   -10.4663  -9.8767  -9.8508  -9.5807  -9.5379  -9.3811  -9.2976  -9.2546
     2.6099   3.0381   3.2425   3.3577   3.4000   3.5436   3.6348   3.8979
     4.1344   4.4808   4.5533   4.7045   4.8373   4.8761   5.1075   5.2075
     5.3781   5.6027   5.9096   6.0349   6.0601   6.1274   6.3986   6.8075
    11.9329  12.1078  12.7107  12.9652  13.2166  13.2376  13.4468  13.6000
    13.8126  13.8919  14.1130  14.1992  15.0164  15.1829  15.3142  15.6804
    15.7488  15.9627  16.2747  16.5306  18.5187  20.4589

          k = 0.8333-0.4058 1.8814 (  7910 PWs)   bands (ev):

   -52.2057 -52.1979 -52.1454 -52.1425 -26.5753 -26.5487 -26.3412 -26.3158
   -26.2664 -26.2314 -26.1853 -26.1571 -26.0571 -26.0555 -26.0466 -26.0337
   -10.6449  -9.8806  -9.7379  -9.6025  -9.4849  -9.3544  -9.2597  -9.2431
     2.4299   2.9397   3.0558   3.2381   3.3995   3.4844   3.6638   3.7669
     4.1438   4.4515   4.5967   4.6497   4.8578   4.8841   5.1451   5.3342
     5.4837   5.8159   5.9986   6.1004   6.2382   6.2558   6.4066   7.0104
    11.8464  12.0906  12.5947  12.7980  13.0769  13.1961  13.3935  13.5678
    13.8156  13.9989  14.0787  14.3404  14.9887  15.1033  15.1763  15.6947
    15.7765  16.0891  16.5005  16.6623  17.9385  20.7253

     Writing all to output data dir ./out/m1.save/

     init_run     :      1.57s CPU      1.61s WALL (       1 calls)
     electrons    :    143.63s CPU    146.37s WALL (       1 calls)

     Called by init_run:
     wfcinit      :      0.00s CPU      0.02s WALL (       1 calls)
     wfcinit:atom :      0.03s CPU      0.03s WALL (     288 calls)
     wfcinit:wfcr :      6.61s CPU      6.74s WALL (     288 calls)
     potinit      :      0.46s CPU      0.46s WALL (       1 calls)
     hinit0       :      0.97s CPU      0.98s WALL (       1 calls)

     Called by electrons:
     c_bands      :    143.62s CPU    146.34s WALL (       1 calls)
     v_of_rho     :      0.02s CPU      0.02s WALL (       1 calls)
     v_h          :      0.00s CPU      0.00s WALL (       1 calls)
     v_xc         :      0.02s CPU      0.02s WALL (       1 calls)
     newd         :      0.06s CPU      0.07s WALL (       1 calls)

     Called by c_bands:
     init_us_2    :      0.04s CPU      0.05s WALL (     288 calls)
     init_us_2:cp :      0.04s CPU      0.05s WALL (     288 calls)
     cegterg      :    135.53s CPU    137.23s WALL (     533 calls)

     Called by sum_band:

     Called by *egterg:
     cdiaghg      :     46.00s CPU     46.28s WALL (    8330 calls)
     cegterg:over :     10.62s CPU     10.71s WALL (    8042 calls)
     cegterg:upda :      5.02s CPU      5.06s WALL (    8042 calls)
     cegterg:last :     11.83s CPU     11.90s WALL (    3632 calls)
     cdiaghg:chol :      1.83s CPU      1.86s WALL (    8330 calls)
     cdiaghg:inve :      1.15s CPU      1.17s WALL (    8330 calls)
     cdiaghg:para :      3.09s CPU      3.13s WALL (   16660 calls)
     h_psi        :     63.67s CPU     65.00s WALL (    8863 calls)
     s_psi        :      2.92s CPU      2.95s WALL (    8863 calls)
     g_psi        :      0.22s CPU      0.22s WALL (    8042 calls)

     Called by h_psi:
     h_psi:calbec :      6.76s CPU      6.83s WALL (    8863 calls)
     vloc_psi     :     53.68s CPU     54.91s WALL (    8863 calls)
     add_vuspsi   :      3.12s CPU      3.15s WALL (    8863 calls)

     General routines
     calbec       :      6.74s CPU      6.82s WALL (    8863 calls)
     fft          :      0.59s CPU      0.60s WALL (      13 calls)
     ffts         :      0.30s CPU      0.30s WALL (       1 calls)
     fftw         :     51.15s CPU     52.32s WALL (  573698 calls)
     interpolate  :      0.30s CPU      0.30s WALL (       1 calls)
     davcio       :      0.09s CPU      0.48s WALL (     576 calls)

     Parallel routines

     PWSCF        :   2m33.24s CPU   2m40.38s WALL


   This run was terminated on:   9:22:31  14Sep2023            

=------------------------------------------------------------------------------=
   JOB DONE.
=------------------------------------------------------------------------------=
