
     Program PWSCF v.7.2 starts on 13Sep2023 at 15:39:29 

     This program is part of the open-source Quantum ESPRESSO suite
     for quantum simulation of materials; please cite
         "P. Giannozzi et al., J. Phys.:Condens. Matter 21 395502 (2009);
         "P. Giannozzi et al., J. Phys.:Condens. Matter 29 465901 (2017);
         "P. Giannozzi et al., J. Chem. Phys. 152 154105 (2020);
          URL http://www.quantum-espresso.org", 
     in publications or presentations arising from this work. More details at
     http://www.quantum-espresso.org/quote

     Parallel version (MPI), running on    36 processors

     MPI processes distributed on     1 nodes
     184459 MiB available memory on the printing compute node when the environment starts

     Reading input from m1.scf.in
Warning: card &CELL ignored
Warning: card / ignored

     Current dimensions of program PWSCF are:
     Max number of different atomic species (ntypx) = 10
     Max number of k-points (npk) =  40000
     Max angular momentum in pseudopotentials (lmaxx) =  4
     Message from routine setup:
     using ibrav=0 with symmetry is DISCOURAGED, use correct ibrav instead

     K-points division:     npool     =       2
     R & G space division:  proc/nbgrp/npool/nimage =      18
     Subspace diagonalization in iterative solution of the eigenvalue problem:
     a serial algorithm will be used


     Parallelization info
     --------------------
     sticks:   dense  smooth     PW     G-vecs:    dense   smooth      PW
     Min         344     114     32                18237     3509     533
     Max         345     116     33                18238     3510     537
     Sum        6197    2065    587               328281    63165    9635

     Using Slab Decomposition



     bravais-lattice index     =            0
     lattice parameter (alat)  =      10.7767  a.u.
     unit-cell volume          =     798.3408 (a.u.)^3
     number of atoms/cell      =           12
     number of atomic types    =            2
     number of electrons       =       100.00
     number of Kohn-Sham states=           70
     kinetic-energy cutoff     =      70.0000  Ry
     charge density cutoff     =     840.0000  Ry
     scf convergence threshold =      5.0E-08
     mixing beta               =       0.7000
     number of iterations used =            8  plain     mixing
     Exchange-correlation= SLA  PW   PBE  PBE
                           (   1   4   3   4   0   0   0)

     celldm(1)=  10.776730  celldm(2)=   0.000000  celldm(3)=   0.000000
     celldm(4)=   0.000000  celldm(5)=   0.000000  celldm(6)=   0.000000

     crystal axes: (cart. coord. in units of alat)
               a(1) = (   1.000000   0.000000   0.000000 )  
               a(2) = (   0.000000   0.564740   0.564740 )  
               a(3) = (  -0.500000  -0.564740   0.564740 )  

     reciprocal axes: (cart. coord. in units 2 pi/alat)
               b(1) = (  1.000000 -0.442681  0.442681 )  
               b(2) = ( -0.000000  0.885363  0.885363 )  
               b(3) = (  0.000000 -0.885363  0.885363 )  


     PseudoPot. # 1 for V  read from file:
     ./pseudo/v_pbe_v1.4.uspp.F.UPF
     MD5 check sum: 22b79981416ebb76fdaf5b1b8640f6fb
     Pseudo is Ultrasoft + core correction, Zval = 13.0
     Generated by new atomic code, or converted to UPF format
     Using radial grid of  853 points,  6 beta functions with: 
                l(1) =   0
                l(2) =   0
                l(3) =   1
                l(4) =   1
                l(5) =   2
                l(6) =   2
     Q(r) pseudized with  8 coefficients,  rinner =    1.100   1.100   1.100
                                                       1.100   1.100

     PseudoPot. # 2 for O  read from file:
     ./pseudo/o_pbe_v1.2.uspp.F.UPF
     MD5 check sum: 734c27235a0248c51dbae37a1fbe46ec
     Pseudo is Ultrasoft + core correction, Zval =  6.0
     Generated by new atomic code, or converted to UPF format
     Using radial grid of  737 points,  5 beta functions with: 
                l(1) =   0
                l(2) =   0
                l(3) =   1
                l(4) =   1
                l(5) =   2
     Q(r) pseudized with  8 coefficients,  rinner =    0.900   0.900   0.900
                                                       0.900   0.900

     atomic species   valence    mass     pseudopotential
        V             13.00    50.94000     V ( 1.00)
        O              6.00    16.00000     O ( 1.00)

      4 Sym. Ops., with inversion, found ( 3 have fractional translation)


                                    s                        frac. trans.

      isym =  1     identity                                     

 cryst.   s( 1) = (     1          0          0      )
                  (     0          1          0      )
                  (     0          0          1      )

 cart.    s( 1) = (  1.0000000  0.0000000  0.0000000 )
                  (  0.0000000  1.0000000  0.0000000 )
                  (  0.0000000  0.0000000  1.0000000 )


      isym =  2     180 deg rotation - cart. axis [0,1,1]        

 cryst.   s( 2) = (    -1          0          0      )    f =(  0.5000000 )
                  (     0          1          0      )       (  0.5000000 )
                  (     0          0         -1      )       ( -0.5000000 )

 cart.    s( 2) = ( -1.0000000  0.0000000  0.0000000 )    f =(  0.7500000 )
                  (  0.0000000  0.0000000  1.0000000 )       (  0.5647401 )
                  (  0.0000000  1.0000000  0.0000000 )       (  0.0000000 )


      isym =  3     inversion                                    

 cryst.   s( 3) = (    -1          0          0      )    f =( -0.5000000 )
                  (     0         -1          0      )       (  0.0000000 )
                  (     0          0         -1      )       (  0.0000000 )

 cart.    s( 3) = ( -1.0000000  0.0000000  0.0000000 )    f =( -0.5000000 )
                  (  0.0000000 -1.0000000  0.0000000 )       ( -0.0000000 )
                  (  0.0000000  0.0000000 -1.0000000 )       (  0.0000000 )


      isym =  4     inv. 180 deg rotation - cart. axis [0,1,1]   

 cryst.   s( 4) = (     1          0          0      )    f =(  0.0000000 )
                  (     0         -1          0      )       ( -0.5000000 )
                  (     0          0          1      )       ( -0.5000000 )

 cart.    s( 4) = (  1.0000000  0.0000000  0.0000000 )    f =(  0.2500000 )
                  (  0.0000000  0.0000000 -1.0000000 )       (  0.0000000 )
                  (  0.0000000 -1.0000000  0.0000000 )       ( -0.5647401 )


   Cartesian axes

     site n.     atom                  positions (alat units)
         1           V   tau(   1) = (   0.0237600   0.0030496   1.1026438  )
         2           V   tau(   2) = (   0.4762400  -0.0030496   1.1563167  )
         3           V   tau(   3) = (   0.2737600   0.0268365   0.5616905  )
         4           V   tau(   4) = (   0.7262400  -0.0268365   0.5677897  )
         5           O   tau(   5) = (   0.0010900  -0.0008019   0.3367319  )
         6           O   tau(   6) = (   0.4981350  -0.0018411   0.3273008  )
         7           O   tau(   7) = (   0.5018650   0.0018411   0.8021795  )
         8           O   tau(   8) = (  -0.0010900   0.0008019   0.7927483  )
         9           O   tau(   9) = (   0.2489100   0.3367319   0.5639382  )
        10           O   tau(  10) = (   0.7518650   0.3273008   0.5628991  )
        11           O   tau(  11) = (   0.2481350  -0.3273008   0.5665812  )
        12           O   tau(  12) = (  -0.2489100  -0.3367319   0.5655421  )

   Crystallographic axes

     site n.     atom                  positions (cryst. coord.)
         1           V   tau(   1) = (  0.5105300  0.9789400  0.9735400  )
         2           V   tau(   2) = (  0.9894700  1.0210600  1.0264600  )
         3           V   tau(   3) = (  0.5105300  0.5210600  0.4735400  )
         4           V   tau(   4) = (  0.9894700  0.4789400  0.5264600  )
         5           O   tau(   5) = (  0.1505100  0.2974200  0.2988400  )
         6           O   tau(   6) = (  0.6438400  0.2881500  0.2914100  )
         7           O   tau(   7) = (  0.8561600  0.7118500  0.7085900  )
         8           O   tau(   8) = (  0.3494900  0.7025800  0.7011600  )
         9           O   tau(   9) = (  0.3494900  0.7974200  0.2011600  )
        10           O   tau(  10) = (  0.8561600  0.7881500  0.2085900  )
        11           O   tau(  11) = (  0.6438400  0.2118500  0.7914100  )
        12           O   tau(  12) = (  0.1505100  0.2025800  0.7988400  )

     number of k points=   168  Marzari-Vanderbilt smearing, width (Ry)=  0.0001
                       cart. coord. in units 2pi/alat
        k(    1) = (   0.0000000   0.0000000   0.0000000), wk =   0.0069444
        k(    2) = (   0.0000000  -0.1106704   0.1106704), wk =   0.0138889
        k(    3) = (   0.0000000  -0.2213407   0.2213407), wk =   0.0138889
        k(    4) = (   0.0000000  -0.3320111   0.3320111), wk =   0.0138889
        k(    5) = (   0.0000000   0.4426815  -0.4426815), wk =   0.0069444
        k(    6) = (   0.0000000   0.1475605   0.1475605), wk =   0.0138889
        k(    7) = (   0.0000000   0.0368901   0.2582309), wk =   0.0277778
        k(    8) = (   0.0000000  -0.0737802   0.3689012), wk =   0.0277778
        k(    9) = (   0.0000000  -0.1844506   0.4795716), wk =   0.0277778
        k(   10) = (   0.0000000   0.5902420  -0.2951210), wk =   0.0138889
        k(   11) = (   0.0000000   0.2951210   0.2951210), wk =   0.0138889
        k(   12) = (   0.0000000   0.1844506   0.4057914), wk =   0.0277778
        k(   13) = (   0.0000000   0.0737802   0.5164617), wk =   0.0277778
        k(   14) = (   0.0000000  -0.0368901   0.6271321), wk =   0.0277778
        k(   15) = (   0.0000000   0.7378025  -0.1475605), wk =   0.0138889
        k(   16) = (   0.0000000  -0.4426815  -0.4426815), wk =   0.0069444
        k(   17) = (   0.0000000  -0.5533519  -0.3320111), wk =   0.0138889
        k(   18) = (   0.0000000  -0.6640222  -0.2213407), wk =   0.0138889
        k(   19) = (   0.0000000  -0.7746926  -0.1106704), wk =   0.0138889
        k(   20) = (   0.0000000   0.0000000  -0.8853630), wk =   0.0069444
        k(   21) = (   0.1666667  -0.0737802   0.0737802), wk =   0.0069444
        k(   22) = (   0.1666667  -0.1844506   0.1844506), wk =   0.0069444
        k(   23) = (   0.1666667  -0.2951210   0.2951210), wk =   0.0069444
        k(   24) = (   0.1666667  -0.4057914   0.4057914), wk =   0.0069444
        k(   25) = (   0.1666667   0.3689012  -0.3689012), wk =   0.0069444
        k(   26) = (   0.1666667   0.2582309  -0.2582309), wk =   0.0069444
        k(   27) = (   0.1666667   0.1475605  -0.1475605), wk =   0.0069444
        k(   28) = (   0.1666667   0.0368901  -0.0368901), wk =   0.0069444
        k(   29) = (   0.1666667   0.0737802   0.2213407), wk =   0.0138889
        k(   30) = (   0.1666667  -0.0368901   0.3320111), wk =   0.0138889
        k(   31) = (   0.1666667  -0.1475605   0.4426815), wk =   0.0138889
        k(   32) = (   0.1666667  -0.2582309   0.5533519), wk =   0.0138889
        k(   33) = (   0.1666667   0.5164617  -0.2213407), wk =   0.0138889
        k(   34) = (   0.1666667   0.4057914  -0.1106704), wk =   0.0138889
        k(   35) = (   0.1666667   0.2951210   0.0000000), wk =   0.0138889
        k(   36) = (   0.1666667   0.1844506   0.1106704), wk =   0.0138889
        k(   37) = (   0.1666667   0.2213407   0.3689012), wk =   0.0138889
        k(   38) = (   0.1666667   0.1106704   0.4795716), wk =   0.0138889
        k(   39) = (   0.1666667   0.0000000   0.5902420), wk =   0.0138889
        k(   40) = (   0.1666667  -0.1106704   0.7009124), wk =   0.0138889
        k(   41) = (   0.1666667   0.6640222  -0.0737802), wk =   0.0138889
        k(   42) = (   0.1666667   0.5533519   0.0368901), wk =   0.0138889
        k(   43) = (   0.1666667   0.4426815   0.1475605), wk =   0.0138889
        k(   44) = (   0.1666667   0.3320111   0.2582309), wk =   0.0138889
        k(   45) = (   0.1666667  -0.5164617  -0.3689012), wk =   0.0069444
        k(   46) = (   0.1666667  -0.6271321  -0.2582309), wk =   0.0069444
        k(   47) = (   0.1666667  -0.7378025  -0.1475605), wk =   0.0069444
        k(   48) = (   0.1666667  -0.8484729  -0.0368901), wk =   0.0069444
        k(   49) = (   0.1666667  -0.0737802  -0.8115827), wk =   0.0069444
        k(   50) = (   0.1666667  -0.1844506  -0.7009124), wk =   0.0069444
        k(   51) = (   0.1666667  -0.2951210  -0.5902420), wk =   0.0069444
        k(   52) = (   0.1666667  -0.4057914  -0.4795716), wk =   0.0069444
        k(   53) = (   0.3333333  -0.1475605   0.1475605), wk =   0.0069444
        k(   54) = (   0.3333333  -0.2582309   0.2582309), wk =   0.0069444
        k(   55) = (   0.3333333  -0.3689012   0.3689012), wk =   0.0069444
        k(   56) = (   0.3333333  -0.4795716   0.4795716), wk =   0.0069444
        k(   57) = (   0.3333333   0.2951210  -0.2951210), wk =   0.0069444
        k(   58) = (   0.3333333   0.1844506  -0.1844506), wk =   0.0069444
        k(   59) = (   0.3333333   0.0737802  -0.0737802), wk =   0.0069444
        k(   60) = (   0.3333333  -0.0368901   0.0368901), wk =   0.0069444
        k(   61) = (   0.3333333   0.0000000   0.2951210), wk =   0.0138889
        k(   62) = (   0.3333333  -0.1106704   0.4057914), wk =   0.0138889
        k(   63) = (   0.3333333  -0.2213407   0.5164617), wk =   0.0138889
        k(   64) = (   0.3333333  -0.3320111   0.6271321), wk =   0.0138889
        k(   65) = (   0.3333333   0.4426815  -0.1475605), wk =   0.0138889
        k(   66) = (   0.3333333   0.3320111  -0.0368901), wk =   0.0138889
        k(   67) = (   0.3333333   0.2213407   0.0737802), wk =   0.0138889
        k(   68) = (   0.3333333   0.1106704   0.1844506), wk =   0.0138889
        k(   69) = (   0.3333333   0.1475605   0.4426815), wk =   0.0138889
        k(   70) = (   0.3333333   0.0368901   0.5533519), wk =   0.0138889
        k(   71) = (   0.3333333  -0.0737802   0.6640222), wk =   0.0138889
        k(   72) = (   0.3333333  -0.1844506   0.7746926), wk =   0.0138889
        k(   73) = (   0.3333333   0.5902420   0.0000000), wk =   0.0138889
        k(   74) = (   0.3333333   0.4795716   0.1106704), wk =   0.0138889
        k(   75) = (   0.3333333   0.3689012   0.2213407), wk =   0.0138889
        k(   76) = (   0.3333333   0.2582309   0.3320111), wk =   0.0138889
        k(   77) = (   0.3333333  -0.5902420  -0.2951210), wk =   0.0069444
        k(   78) = (   0.3333333  -0.7009124  -0.1844506), wk =   0.0069444
        k(   79) = (   0.3333333  -0.8115827  -0.0737802), wk =   0.0069444
        k(   80) = (   0.3333333  -0.9222531   0.0368901), wk =   0.0069444
        k(   81) = (   0.3333333  -0.1475605  -0.7378025), wk =   0.0069444
        k(   82) = (   0.3333333  -0.2582309  -0.6271321), wk =   0.0069444
        k(   83) = (   0.3333333  -0.3689012  -0.5164617), wk =   0.0069444
        k(   84) = (   0.3333333  -0.4795716  -0.4057914), wk =   0.0069444
        k(   85) = (  -0.5000000   0.2213407  -0.2213407), wk =   0.0069444
        k(   86) = (  -0.5000000   0.1106704  -0.1106704), wk =   0.0138889
        k(   87) = (  -0.5000000   0.0000000   0.0000000), wk =   0.0138889
        k(   88) = (  -0.5000000   0.3689012  -0.0737802), wk =   0.0138889
        k(   89) = (  -0.5000000   0.2582309   0.0368901), wk =   0.0277778
        k(   90) = (  -0.5000000   0.1475605   0.1475605), wk =   0.0277778
        k(   91) = (  -0.5000000   0.5164617   0.0737802), wk =   0.0138889
        k(   92) = (  -0.5000000   0.4057914   0.1844506), wk =   0.0277778
        k(   93) = (  -0.5000000   0.2951210   0.2951210), wk =   0.0277778
        k(   94) = (  -0.5000000  -0.2213407  -0.6640222), wk =   0.0069444
        k(   95) = (  -0.5000000  -0.3320111  -0.5533519), wk =   0.0138889
        k(   96) = (  -0.5000000  -0.4426815  -0.4426815), wk =   0.0138889
        k(   97) = (   0.1666667   0.0737802  -0.0737802), wk =   0.0069444
        k(   98) = (   0.1666667   0.1844506  -0.1844506), wk =   0.0069444
        k(   99) = (   0.1666667   0.2951210  -0.2951210), wk =   0.0069444
        k(  100) = (   0.1666667   0.4057914  -0.4057914), wk =   0.0069444
        k(  101) = (   0.1666667  -0.3689012   0.3689012), wk =   0.0069444
        k(  102) = (   0.1666667  -0.2582309   0.2582309), wk =   0.0069444
        k(  103) = (   0.1666667  -0.1475605   0.1475605), wk =   0.0069444
        k(  104) = (   0.1666667  -0.0368901   0.0368901), wk =   0.0069444
        k(  105) = (   0.1666667  -0.0737802  -0.2213407), wk =   0.0138889
        k(  106) = (   0.1666667   0.0368901  -0.3320111), wk =   0.0138889
        k(  107) = (   0.1666667   0.1475605  -0.4426815), wk =   0.0138889
        k(  108) = (   0.1666667   0.2582309  -0.5533519), wk =   0.0138889
        k(  109) = (   0.1666667  -0.5164617   0.2213407), wk =   0.0138889
        k(  110) = (   0.1666667  -0.4057914   0.1106704), wk =   0.0138889
        k(  111) = (   0.1666667  -0.2951210   0.0000000), wk =   0.0138889
        k(  112) = (   0.1666667  -0.1844506  -0.1106704), wk =   0.0138889
        k(  113) = (   0.1666667  -0.2213407  -0.3689012), wk =   0.0138889
        k(  114) = (   0.1666667  -0.1106704  -0.4795716), wk =   0.0138889
        k(  115) = (   0.1666667   0.0000000  -0.5902420), wk =   0.0138889
        k(  116) = (   0.1666667   0.1106704  -0.7009124), wk =   0.0138889
        k(  117) = (   0.1666667  -0.6640222   0.0737802), wk =   0.0138889
        k(  118) = (   0.1666667  -0.5533519  -0.0368901), wk =   0.0138889
        k(  119) = (   0.1666667  -0.4426815  -0.1475605), wk =   0.0138889
        k(  120) = (   0.1666667  -0.3320111  -0.2582309), wk =   0.0138889
        k(  121) = (   0.1666667   0.5164617   0.3689012), wk =   0.0069444
        k(  122) = (   0.1666667   0.6271321   0.2582309), wk =   0.0069444
        k(  123) = (   0.1666667   0.7378025   0.1475605), wk =   0.0069444
        k(  124) = (   0.1666667   0.8484729   0.0368901), wk =   0.0069444
        k(  125) = (   0.1666667   0.0737802   0.8115827), wk =   0.0069444
        k(  126) = (   0.1666667   0.1844506   0.7009124), wk =   0.0069444
        k(  127) = (   0.1666667   0.2951210   0.5902420), wk =   0.0069444
        k(  128) = (   0.1666667   0.4057914   0.4795716), wk =   0.0069444
        k(  129) = (   0.3333333   0.1475605  -0.1475605), wk =   0.0069444
        k(  130) = (   0.3333333   0.2582309  -0.2582309), wk =   0.0069444
        k(  131) = (   0.3333333   0.3689012  -0.3689012), wk =   0.0069444
        k(  132) = (   0.3333333   0.4795716  -0.4795716), wk =   0.0069444
        k(  133) = (   0.3333333  -0.2951210   0.2951210), wk =   0.0069444
        k(  134) = (   0.3333333  -0.1844506   0.1844506), wk =   0.0069444
        k(  135) = (   0.3333333  -0.0737802   0.0737802), wk =   0.0069444
        k(  136) = (   0.3333333   0.0368901  -0.0368901), wk =   0.0069444
        k(  137) = (   0.3333333   0.0000000  -0.2951210), wk =   0.0138889
        k(  138) = (   0.3333333   0.1106704  -0.4057914), wk =   0.0138889
        k(  139) = (   0.3333333   0.2213407  -0.5164617), wk =   0.0138889
        k(  140) = (   0.3333333   0.3320111  -0.6271321), wk =   0.0138889
        k(  141) = (   0.3333333  -0.4426815   0.1475605), wk =   0.0138889
        k(  142) = (   0.3333333  -0.3320111   0.0368901), wk =   0.0138889
        k(  143) = (   0.3333333  -0.2213407  -0.0737802), wk =   0.0138889
        k(  144) = (   0.3333333  -0.1106704  -0.1844506), wk =   0.0138889
        k(  145) = (   0.3333333  -0.1475605  -0.4426815), wk =   0.0138889
        k(  146) = (   0.3333333  -0.0368901  -0.5533519), wk =   0.0138889
        k(  147) = (   0.3333333   0.0737802  -0.6640222), wk =   0.0138889
        k(  148) = (   0.3333333   0.1844506  -0.7746926), wk =   0.0138889
        k(  149) = (   0.3333333  -0.5902420   0.0000000), wk =   0.0138889
        k(  150) = (   0.3333333  -0.4795716  -0.1106704), wk =   0.0138889
        k(  151) = (   0.3333333  -0.3689012  -0.2213407), wk =   0.0138889
        k(  152) = (   0.3333333  -0.2582309  -0.3320111), wk =   0.0138889
        k(  153) = (   0.3333333   0.5902420   0.2951210), wk =   0.0069444
        k(  154) = (   0.3333333   0.7009124   0.1844506), wk =   0.0069444
        k(  155) = (   0.3333333   0.8115827   0.0737802), wk =   0.0069444
        k(  156) = (   0.3333333   0.9222531  -0.0368901), wk =   0.0069444
        k(  157) = (   0.3333333   0.1475605   0.7378025), wk =   0.0069444
        k(  158) = (   0.3333333   0.2582309   0.6271321), wk =   0.0069444
        k(  159) = (   0.3333333   0.3689012   0.5164617), wk =   0.0069444
        k(  160) = (   0.3333333   0.4795716   0.4057914), wk =   0.0069444
        k(  161) = (  -0.5000000  -0.2213407   0.2213407), wk =   0.0069444
        k(  162) = (  -0.5000000  -0.1106704   0.1106704), wk =   0.0138889
        k(  163) = (  -0.5000000  -0.3689012   0.0737802), wk =   0.0138889
        k(  164) = (  -0.5000000  -0.2582309  -0.0368901), wk =   0.0277778
        k(  165) = (  -0.5000000  -0.5164617  -0.0737802), wk =   0.0138889
        k(  166) = (  -0.5000000  -0.4057914  -0.1844506), wk =   0.0277778
        k(  167) = (  -0.5000000   0.2213407   0.6640222), wk =   0.0069444
        k(  168) = (  -0.5000000   0.3320111   0.5533519), wk =   0.0138889

                       cryst. coord.
        k(    1) = (   0.0000000   0.0000000   0.0000000), wk =   0.0069444
        k(    2) = (   0.0000000   0.0000000   0.1250000), wk =   0.0138889
        k(    3) = (   0.0000000   0.0000000   0.2500000), wk =   0.0138889
        k(    4) = (   0.0000000   0.0000000   0.3750000), wk =   0.0138889
        k(    5) = (   0.0000000   0.0000000  -0.5000000), wk =   0.0069444
        k(    6) = (   0.0000000   0.1666667   0.0000000), wk =   0.0138889
        k(    7) = (   0.0000000   0.1666667   0.1250000), wk =   0.0277778
        k(    8) = (   0.0000000   0.1666667   0.2500000), wk =   0.0277778
        k(    9) = (   0.0000000   0.1666667   0.3750000), wk =   0.0277778
        k(   10) = (   0.0000000   0.1666667  -0.5000000), wk =   0.0138889
        k(   11) = (   0.0000000   0.3333333   0.0000000), wk =   0.0138889
        k(   12) = (   0.0000000   0.3333333   0.1250000), wk =   0.0277778
        k(   13) = (   0.0000000   0.3333333   0.2500000), wk =   0.0277778
        k(   14) = (   0.0000000   0.3333333   0.3750000), wk =   0.0277778
        k(   15) = (   0.0000000   0.3333333  -0.5000000), wk =   0.0138889
        k(   16) = (   0.0000000  -0.5000000   0.0000000), wk =   0.0069444
        k(   17) = (   0.0000000  -0.5000000   0.1250000), wk =   0.0138889
        k(   18) = (   0.0000000  -0.5000000   0.2500000), wk =   0.0138889
        k(   19) = (   0.0000000  -0.5000000   0.3750000), wk =   0.0138889
        k(   20) = (   0.0000000  -0.5000000  -0.5000000), wk =   0.0069444
        k(   21) = (   0.1666667   0.0000000   0.0000000), wk =   0.0069444
        k(   22) = (   0.1666667   0.0000000   0.1250000), wk =   0.0069444
        k(   23) = (   0.1666667   0.0000000   0.2500000), wk =   0.0069444
        k(   24) = (   0.1666667   0.0000000   0.3750000), wk =   0.0069444
        k(   25) = (   0.1666667   0.0000000  -0.5000000), wk =   0.0069444
        k(   26) = (   0.1666667   0.0000000  -0.3750000), wk =   0.0069444
        k(   27) = (   0.1666667   0.0000000  -0.2500000), wk =   0.0069444
        k(   28) = (   0.1666667   0.0000000  -0.1250000), wk =   0.0069444
        k(   29) = (   0.1666667   0.1666667  -0.0000000), wk =   0.0138889
        k(   30) = (   0.1666667   0.1666667   0.1250000), wk =   0.0138889
        k(   31) = (   0.1666667   0.1666667   0.2500000), wk =   0.0138889
        k(   32) = (   0.1666667   0.1666667   0.3750000), wk =   0.0138889
        k(   33) = (   0.1666667   0.1666667  -0.5000000), wk =   0.0138889
        k(   34) = (   0.1666667   0.1666667  -0.3750000), wk =   0.0138889
        k(   35) = (   0.1666667   0.1666667  -0.2500000), wk =   0.0138889
        k(   36) = (   0.1666667   0.1666667  -0.1250000), wk =   0.0138889
        k(   37) = (   0.1666667   0.3333333  -0.0000000), wk =   0.0138889
        k(   38) = (   0.1666667   0.3333333   0.1250000), wk =   0.0138889
        k(   39) = (   0.1666667   0.3333333   0.2500000), wk =   0.0138889
        k(   40) = (   0.1666667   0.3333333   0.3750000), wk =   0.0138889
        k(   41) = (   0.1666667   0.3333333  -0.5000000), wk =   0.0138889
        k(   42) = (   0.1666667   0.3333333  -0.3750000), wk =   0.0138889
        k(   43) = (   0.1666667   0.3333333  -0.2500000), wk =   0.0138889
        k(   44) = (   0.1666667   0.3333333  -0.1250000), wk =   0.0138889
        k(   45) = (   0.1666667  -0.5000000   0.0000000), wk =   0.0069444
        k(   46) = (   0.1666667  -0.5000000   0.1250000), wk =   0.0069444
        k(   47) = (   0.1666667  -0.5000000   0.2500000), wk =   0.0069444
        k(   48) = (   0.1666667  -0.5000000   0.3750000), wk =   0.0069444
        k(   49) = (   0.1666667  -0.5000000  -0.5000000), wk =   0.0069444
        k(   50) = (   0.1666667  -0.5000000  -0.3750000), wk =   0.0069444
        k(   51) = (   0.1666667  -0.5000000  -0.2500000), wk =   0.0069444
        k(   52) = (   0.1666667  -0.5000000  -0.1250000), wk =   0.0069444
        k(   53) = (   0.3333333   0.0000000   0.0000000), wk =   0.0069444
        k(   54) = (   0.3333333   0.0000000   0.1250000), wk =   0.0069444
        k(   55) = (   0.3333333   0.0000000   0.2500000), wk =   0.0069444
        k(   56) = (   0.3333333   0.0000000   0.3750000), wk =   0.0069444
        k(   57) = (   0.3333333   0.0000000  -0.5000000), wk =   0.0069444
        k(   58) = (   0.3333333   0.0000000  -0.3750000), wk =   0.0069444
        k(   59) = (   0.3333333   0.0000000  -0.2500000), wk =   0.0069444
        k(   60) = (   0.3333333   0.0000000  -0.1250000), wk =   0.0069444
        k(   61) = (   0.3333333   0.1666667   0.0000000), wk =   0.0138889
        k(   62) = (   0.3333333   0.1666667   0.1250000), wk =   0.0138889
        k(   63) = (   0.3333333   0.1666667   0.2500000), wk =   0.0138889
        k(   64) = (   0.3333333   0.1666667   0.3750000), wk =   0.0138889
        k(   65) = (   0.3333333   0.1666667  -0.5000000), wk =   0.0138889
        k(   66) = (   0.3333333   0.1666667  -0.3750000), wk =   0.0138889
        k(   67) = (   0.3333333   0.1666667  -0.2500000), wk =   0.0138889
        k(   68) = (   0.3333333   0.1666667  -0.1250000), wk =   0.0138889
        k(   69) = (   0.3333333   0.3333333  -0.0000000), wk =   0.0138889
        k(   70) = (   0.3333333   0.3333333   0.1250000), wk =   0.0138889
        k(   71) = (   0.3333333   0.3333333   0.2500000), wk =   0.0138889
        k(   72) = (   0.3333333   0.3333333   0.3750000), wk =   0.0138889
        k(   73) = (   0.3333333   0.3333333  -0.5000000), wk =   0.0138889
        k(   74) = (   0.3333333   0.3333333  -0.3750000), wk =   0.0138889
        k(   75) = (   0.3333333   0.3333333  -0.2500000), wk =   0.0138889
        k(   76) = (   0.3333333   0.3333333  -0.1250000), wk =   0.0138889
        k(   77) = (   0.3333333  -0.5000000   0.0000000), wk =   0.0069444
        k(   78) = (   0.3333333  -0.5000000   0.1250000), wk =   0.0069444
        k(   79) = (   0.3333333  -0.5000000   0.2500000), wk =   0.0069444
        k(   80) = (   0.3333333  -0.5000000   0.3750000), wk =   0.0069444
        k(   81) = (   0.3333333  -0.5000000  -0.5000000), wk =   0.0069444
        k(   82) = (   0.3333333  -0.5000000  -0.3750000), wk =   0.0069444
        k(   83) = (   0.3333333  -0.5000000  -0.2500000), wk =   0.0069444
        k(   84) = (   0.3333333  -0.5000000  -0.1250000), wk =   0.0069444
        k(   85) = (  -0.5000000   0.0000000   0.0000000), wk =   0.0069444
        k(   86) = (  -0.5000000   0.0000000   0.1250000), wk =   0.0138889
        k(   87) = (  -0.5000000   0.0000000   0.2500000), wk =   0.0138889
        k(   88) = (  -0.5000000   0.1666667   0.0000000), wk =   0.0138889
        k(   89) = (  -0.5000000   0.1666667   0.1250000), wk =   0.0277778
        k(   90) = (  -0.5000000   0.1666667   0.2500000), wk =   0.0277778
        k(   91) = (  -0.5000000   0.3333333   0.0000000), wk =   0.0138889
        k(   92) = (  -0.5000000   0.3333333   0.1250000), wk =   0.0277778
        k(   93) = (  -0.5000000   0.3333333   0.2500000), wk =   0.0277778
        k(   94) = (  -0.5000000  -0.5000000   0.0000000), wk =   0.0069444
        k(   95) = (  -0.5000000  -0.5000000   0.1250000), wk =   0.0138889
        k(   96) = (  -0.5000000  -0.5000000   0.2500000), wk =   0.0138889
        k(   97) = (   0.1666667   0.0000000  -0.1666667), wk =   0.0069444
        k(   98) = (   0.1666667   0.0000000  -0.2916667), wk =   0.0069444
        k(   99) = (   0.1666667   0.0000000  -0.4166667), wk =   0.0069444
        k(  100) = (   0.1666667   0.0000000  -0.5416667), wk =   0.0069444
        k(  101) = (   0.1666667   0.0000000   0.3333333), wk =   0.0069444
        k(  102) = (   0.1666667   0.0000000   0.2083333), wk =   0.0069444
        k(  103) = (   0.1666667   0.0000000   0.0833333), wk =   0.0069444
        k(  104) = (   0.1666667   0.0000000  -0.0416667), wk =   0.0069444
        k(  105) = (   0.1666667  -0.1666667  -0.1666667), wk =   0.0138889
        k(  106) = (   0.1666667  -0.1666667  -0.2916667), wk =   0.0138889
        k(  107) = (   0.1666667  -0.1666667  -0.4166667), wk =   0.0138889
        k(  108) = (   0.1666667  -0.1666667  -0.5416667), wk =   0.0138889
        k(  109) = (   0.1666667  -0.1666667   0.3333333), wk =   0.0138889
        k(  110) = (   0.1666667  -0.1666667   0.2083333), wk =   0.0138889
        k(  111) = (   0.1666667  -0.1666667   0.0833333), wk =   0.0138889
        k(  112) = (   0.1666667  -0.1666667  -0.0416667), wk =   0.0138889
        k(  113) = (   0.1666667  -0.3333333  -0.1666667), wk =   0.0138889
        k(  114) = (   0.1666667  -0.3333333  -0.2916667), wk =   0.0138889
        k(  115) = (   0.1666667  -0.3333333  -0.4166667), wk =   0.0138889
        k(  116) = (   0.1666667  -0.3333333  -0.5416667), wk =   0.0138889
        k(  117) = (   0.1666667  -0.3333333   0.3333333), wk =   0.0138889
        k(  118) = (   0.1666667  -0.3333333   0.2083333), wk =   0.0138889
        k(  119) = (   0.1666667  -0.3333333   0.0833333), wk =   0.0138889
        k(  120) = (   0.1666667  -0.3333333  -0.0416667), wk =   0.0138889
        k(  121) = (   0.1666667   0.5000000  -0.1666667), wk =   0.0069444
        k(  122) = (   0.1666667   0.5000000  -0.2916667), wk =   0.0069444
        k(  123) = (   0.1666667   0.5000000  -0.4166667), wk =   0.0069444
        k(  124) = (   0.1666667   0.5000000  -0.5416667), wk =   0.0069444
        k(  125) = (   0.1666667   0.5000000   0.3333333), wk =   0.0069444
        k(  126) = (   0.1666667   0.5000000   0.2083333), wk =   0.0069444
        k(  127) = (   0.1666667   0.5000000   0.0833333), wk =   0.0069444
        k(  128) = (   0.1666667   0.5000000  -0.0416667), wk =   0.0069444
        k(  129) = (   0.3333333   0.0000000  -0.3333333), wk =   0.0069444
        k(  130) = (   0.3333333   0.0000000  -0.4583333), wk =   0.0069444
        k(  131) = (   0.3333333   0.0000000  -0.5833333), wk =   0.0069444
        k(  132) = (   0.3333333   0.0000000  -0.7083333), wk =   0.0069444
        k(  133) = (   0.3333333   0.0000000   0.1666667), wk =   0.0069444
        k(  134) = (   0.3333333   0.0000000   0.0416667), wk =   0.0069444
        k(  135) = (   0.3333333   0.0000000  -0.0833333), wk =   0.0069444
        k(  136) = (   0.3333333   0.0000000  -0.2083333), wk =   0.0069444
        k(  137) = (   0.3333333  -0.1666667  -0.3333333), wk =   0.0138889
        k(  138) = (   0.3333333  -0.1666667  -0.4583333), wk =   0.0138889
        k(  139) = (   0.3333333  -0.1666667  -0.5833333), wk =   0.0138889
        k(  140) = (   0.3333333  -0.1666667  -0.7083333), wk =   0.0138889
        k(  141) = (   0.3333333  -0.1666667   0.1666667), wk =   0.0138889
        k(  142) = (   0.3333333  -0.1666667   0.0416667), wk =   0.0138889
        k(  143) = (   0.3333333  -0.1666667  -0.0833333), wk =   0.0138889
        k(  144) = (   0.3333333  -0.1666667  -0.2083333), wk =   0.0138889
        k(  145) = (   0.3333333  -0.3333333  -0.3333333), wk =   0.0138889
        k(  146) = (   0.3333333  -0.3333333  -0.4583333), wk =   0.0138889
        k(  147) = (   0.3333333  -0.3333333  -0.5833333), wk =   0.0138889
        k(  148) = (   0.3333333  -0.3333333  -0.7083333), wk =   0.0138889
        k(  149) = (   0.3333333  -0.3333333   0.1666667), wk =   0.0138889
        k(  150) = (   0.3333333  -0.3333333   0.0416667), wk =   0.0138889
        k(  151) = (   0.3333333  -0.3333333  -0.0833333), wk =   0.0138889
        k(  152) = (   0.3333333  -0.3333333  -0.2083333), wk =   0.0138889
        k(  153) = (   0.3333333   0.5000000  -0.3333333), wk =   0.0069444
        k(  154) = (   0.3333333   0.5000000  -0.4583333), wk =   0.0069444
        k(  155) = (   0.3333333   0.5000000  -0.5833333), wk =   0.0069444
        k(  156) = (   0.3333333   0.5000000  -0.7083333), wk =   0.0069444
        k(  157) = (   0.3333333   0.5000000   0.1666667), wk =   0.0069444
        k(  158) = (   0.3333333   0.5000000   0.0416667), wk =   0.0069444
        k(  159) = (   0.3333333   0.5000000  -0.0833333), wk =   0.0069444
        k(  160) = (   0.3333333   0.5000000  -0.2083333), wk =   0.0069444
        k(  161) = (  -0.5000000   0.0000000   0.5000000), wk =   0.0069444
        k(  162) = (  -0.5000000   0.0000000   0.3750000), wk =   0.0138889
        k(  163) = (  -0.5000000  -0.1666667   0.5000000), wk =   0.0138889
        k(  164) = (  -0.5000000  -0.1666667   0.3750000), wk =   0.0277778
        k(  165) = (  -0.5000000  -0.3333333   0.5000000), wk =   0.0138889
        k(  166) = (  -0.5000000  -0.3333333   0.3750000), wk =   0.0277778
        k(  167) = (  -0.5000000   0.5000000   0.5000000), wk =   0.0069444
        k(  168) = (  -0.5000000   0.5000000   0.3750000), wk =   0.0138889

     Dense  grid:   328281 G-vectors     FFT dimensions: ( 100,  80,  96)

     Smooth grid:    63165 G-vectors     FFT dimensions: (  60,  48,  60)

     Dynamical RAM for                 wfc:       0.47 MB

     Dynamical RAM for     wfc (w. buffer):      39.77 MB

     Dynamical RAM for           str. fact:       0.56 MB

     Dynamical RAM for           local pot:       0.00 MB

     Dynamical RAM for          nlocal pot:       1.18 MB

     Dynamical RAM for                qrad:       4.65 MB

     Dynamical RAM for          rho,v,vnew:       1.93 MB

     Dynamical RAM for               rhoin:       0.64 MB

     Dynamical RAM for            rho*nmix:       4.45 MB

     Dynamical RAM for           G-vectors:       1.07 MB

     Dynamical RAM for          h,s,v(r/c):       0.90 MB

     Dynamical RAM for          <psi|beta>:       0.19 MB

     Dynamical RAM for                 psi:       0.94 MB

     Dynamical RAM for                hpsi:       0.94 MB

     Dynamical RAM for                spsi:       0.94 MB

     Dynamical RAM for      wfcinit/wfcrot:       1.08 MB

     Dynamical RAM for           addusdens:      27.13 MB

     Estimated static dynamical RAM per process >      52.46 MB

     Estimated max dynamical RAM per process >      84.05 MB

     Estimated total dynamical RAM >       2.88 GB

     Check: negative core charge=   -0.000003

     Initial potential from superposition of free atoms

     starting charge      99.9951, renormalised to     100.0000

     negative rho (up, down):  2.665E-03 0.000E+00
     Starting wfcs are   72 randomized atomic wfcs

     total cpu time spent up to now is        5.4 secs

     Self-consistent Calculation

     iteration #  1     ecut=    70.00 Ry     beta= 0.70
     Davidson diagonalization with overlap

---- Real-time Memory Report at c_bands before calling an iterative solver
           164 MiB given to the printing process from OS
             0 MiB allocation reported by mallinfo(arena+hblkhd)
        181711 MiB available memory on the node where the printing process lives
------------------
     ethr =  1.00E-02,  avg # of iterations =  3.9

     negative rho (up, down):  7.396E-03 0.000E+00

     total cpu time spent up to now is       13.8 secs

     WARNING: integrated charge=   100.00017062, expected=   100.00000000

     total energy              =    -836.30372112 Ry
     estimated scf accuracy    <       5.51964903 Ry

     iteration #  2     ecut=    70.00 Ry     beta= 0.70
     Davidson diagonalization with overlap

---- Real-time Memory Report at c_bands before calling an iterative solver
           192 MiB given to the printing process from OS
             0 MiB allocation reported by mallinfo(arena+hblkhd)
        180915 MiB available memory on the node where the printing process lives
------------------
     ethr =  5.52E-03,  avg # of iterations =  2.0

     negative rho (up, down):  2.547E-03 0.000E+00

     total cpu time spent up to now is       22.9 secs

     WARNING: integrated charge=   100.00014980, expected=   100.00000000

     total energy              =    -826.99265297 Ry
     estimated scf accuracy    <     112.55050151 Ry

     iteration #  3     ecut=    70.00 Ry     beta= 0.70
     Davidson diagonalization with overlap

---- Real-time Memory Report at c_bands before calling an iterative solver
           193 MiB given to the printing process from OS
             0 MiB allocation reported by mallinfo(arena+hblkhd)
        180650 MiB available memory on the node where the printing process lives
------------------
     ethr =  5.52E-03,  avg # of iterations =  2.0

     negative rho (up, down):  3.309E-03 0.000E+00

     total cpu time spent up to now is       31.9 secs

     WARNING: integrated charge=   100.00027104, expected=   100.00000000

     total energy              =    -839.64645260 Ry
     estimated scf accuracy    <       1.28045633 Ry

     iteration #  4     ecut=    70.00 Ry     beta= 0.70
     Davidson diagonalization with overlap

---- Real-time Memory Report at c_bands before calling an iterative solver
           194 MiB given to the printing process from OS
             0 MiB allocation reported by mallinfo(arena+hblkhd)
        180533 MiB available memory on the node where the printing process lives
------------------
     ethr =  1.28E-03,  avg # of iterations =  1.1

     negative rho (up, down):  4.173E-03 0.000E+00

     total cpu time spent up to now is       38.2 secs

     total energy              =    -839.55629616 Ry
     estimated scf accuracy    <       0.60124880 Ry

     iteration #  5     ecut=    70.00 Ry     beta= 0.70
     Davidson diagonalization with overlap

---- Real-time Memory Report at c_bands before calling an iterative solver
           194 MiB given to the printing process from OS
             0 MiB allocation reported by mallinfo(arena+hblkhd)
        180379 MiB available memory on the node where the printing process lives
------------------
     ethr =  6.01E-04,  avg # of iterations =  2.0

     negative rho (up, down):  4.568E-03 0.000E+00

     total cpu time spent up to now is       45.0 secs

     WARNING: integrated charge=    99.99991792, expected=   100.00000000

     total energy              =    -839.56775955 Ry
     estimated scf accuracy    <       0.11015999 Ry

     iteration #  6     ecut=    70.00 Ry     beta= 0.70
     Davidson diagonalization with overlap

---- Real-time Memory Report at c_bands before calling an iterative solver
           194 MiB given to the printing process from OS
             0 MiB allocation reported by mallinfo(arena+hblkhd)
        179668 MiB available memory on the node where the printing process lives
------------------
     ethr =  1.10E-04,  avg # of iterations =  2.0

     negative rho (up, down):  4.918E-03 0.000E+00

     total cpu time spent up to now is       52.2 secs

     WARNING: integrated charge=   100.00044644, expected=   100.00000000

     total energy              =    -839.57526419 Ry
     estimated scf accuracy    <       0.00625655 Ry

     iteration #  7     ecut=    70.00 Ry     beta= 0.70
     Davidson diagonalization with overlap

---- Real-time Memory Report at c_bands before calling an iterative solver
           194 MiB given to the printing process from OS
             0 MiB allocation reported by mallinfo(arena+hblkhd)
        179815 MiB available memory on the node where the printing process lives
------------------
     ethr =  6.26E-06,  avg # of iterations =  4.1

     negative rho (up, down):  4.915E-03 0.000E+00

     total cpu time spent up to now is       60.9 secs

     WARNING: integrated charge=   100.00016916, expected=   100.00000000

     total energy              =    -839.57727225 Ry
     estimated scf accuracy    <       0.00086148 Ry

     iteration #  8     ecut=    70.00 Ry     beta= 0.70
     Davidson diagonalization with overlap

---- Real-time Memory Report at c_bands before calling an iterative solver
           195 MiB given to the printing process from OS
             0 MiB allocation reported by mallinfo(arena+hblkhd)
        179150 MiB available memory on the node where the printing process lives
------------------
     ethr =  8.61E-07,  avg # of iterations =  1.4

     negative rho (up, down):  4.889E-03 0.000E+00

     total cpu time spent up to now is       67.3 secs

     WARNING: integrated charge=   100.00003127, expected=   100.00000000

     total energy              =    -839.57727577 Ry
     estimated scf accuracy    <       0.00012742 Ry

     iteration #  9     ecut=    70.00 Ry     beta= 0.70
     Davidson diagonalization with overlap

---- Real-time Memory Report at c_bands before calling an iterative solver
           195 MiB given to the printing process from OS
             0 MiB allocation reported by mallinfo(arena+hblkhd)
        179028 MiB available memory on the node where the printing process lives
------------------
     ethr =  1.27E-07,  avg # of iterations =  2.0

     negative rho (up, down):  4.892E-03 0.000E+00

     total cpu time spent up to now is       73.9 secs

     total energy              =    -839.57729966 Ry
     estimated scf accuracy    <       0.00000696 Ry

     iteration # 10     ecut=    70.00 Ry     beta= 0.70
     Davidson diagonalization with overlap

---- Real-time Memory Report at c_bands before calling an iterative solver
           195 MiB given to the printing process from OS
             0 MiB allocation reported by mallinfo(arena+hblkhd)
        178559 MiB available memory on the node where the printing process lives
------------------
     ethr =  6.96E-09,  avg # of iterations =  1.0

     negative rho (up, down):  4.892E-03 0.000E+00

     total cpu time spent up to now is       80.0 secs

     End of self-consistent calculation

          k = 0.0000 0.0000 0.0000 (  7907 PWs)   bands (ev):

   -54.4943 -54.4847 -54.4390 -54.4383 -28.6254 -28.6210 -28.6129 -28.5908
   -28.5125 -28.4874 -28.1379 -28.1377 -28.0901 -28.0699 -28.0386 -28.0376
    -9.0067  -7.7416  -7.7341  -7.5072  -7.1750  -7.1467  -7.1393  -7.1355
     3.4475   4.0535   4.0927   4.1500   4.1633   4.8244   4.8803   5.7404
     5.7667   5.9872   6.0761   6.6630   6.6981   6.7100   6.9275   7.2592
     7.3138   7.3610   7.9910   8.2816   8.4032   8.5049   8.7554   9.5861
    10.5832  10.6073  11.0695  11.1717  11.4412  11.4443  11.7543  12.4547
    12.6318  12.6584  12.7921  13.2275  13.4471  13.8024  13.8228  14.9510
    15.0311  15.9250  16.0403  16.1932  17.8664  21.7698

     occupation numbers 
     1.0000   1.0000   1.0000   1.0000   1.0000   1.0000   1.0000   1.0000
     1.0000   1.0000   1.0000   1.0000   1.0000   1.0000   1.0000   1.0000
     1.0000   1.0000   1.0000   1.0000   1.0000   1.0000   1.0000   1.0000
     1.0000   1.0000   1.0000   1.0000   1.0000   1.0000   1.0000   1.0000
     1.0000   1.0000   1.0000   1.0000   1.0000   1.0000   1.0000   1.0000
     1.0000   1.0000   1.0000   1.0000   1.0000   1.0000   1.0000   1.0000
     1.0000   1.0000   1.0000   0.0000   0.0000   0.0000   0.0000   0.0000
     0.0000   0.0000   0.0000   0.0000   0.0000   0.0000   0.0000   0.0000
     0.0000   0.0000   0.0000   0.0000   0.0000   0.0000

          k = 0.0000-0.1107 0.1107 (  7925 PWs)   bands (ev):

   -54.4939 -54.4850 -54.4390 -54.4383 -28.6249 -28.6208 -28.6109 -28.5897
   -28.5132 -28.4894 -28.1385 -28.1382 -28.0896 -28.0709 -28.0385 -28.0376
    -8.9496  -7.7234  -7.7193  -7.5159  -7.2333  -7.1716  -7.1580  -7.1482
     3.5544   4.0506   4.1729   4.2667   4.3034   4.8234   4.8777   5.7207
     5.7614   6.0136   6.0646   6.4996   6.6033   6.6884   6.8424   7.2727
     7.3974   7.4308   7.8391   8.0070   8.2607   8.5492   8.5935   9.5078
    10.6456  10.6642  11.2276  11.2332  11.5197  11.6074  11.8199  12.4707
    12.6165  12.6509  12.7725  13.2709  13.4202  13.8719  13.8885  14.8933
    14.9880  15.8059  15.9154  16.1173  18.0634  21.6795

     occupation numbers 
     1.0000   1.0000   1.0000   1.0000   1.0000   1.0000   1.0000   1.0000
     1.0000   1.0000   1.0000   1.0000   1.0000   1.0000   1.0000   1.0000
     1.0000   1.0000   1.0000   1.0000   1.0000   1.0000   1.0000   1.0000
     1.0000   1.0000   1.0000   1.0000   1.0000   1.0000   1.0000   1.0000
     1.0000   1.0000   1.0000   1.0000   1.0000   1.0000   1.0000   1.0000
     1.0000   1.0000   1.0000   1.0000   1.0000   1.0000   1.0000   1.0000
     1.0000   1.0000   0.0000   0.0000   0.0000   0.0000   0.0000   0.0000
     0.0000   0.0000   0.0000   0.0000   0.0000   0.0000   0.0000   0.0000
     0.0000   0.0000   0.0000   0.0000   0.0000   0.0000

          k = 0.0000-0.2213 0.2213 (  7901 PWs)   bands (ev):

   -54.4928 -54.4861 -54.4389 -54.4384 -28.6238 -28.6204 -28.6054 -28.5876
   -28.5145 -28.4949 -28.1400 -28.1395 -28.0878 -28.0734 -28.0382 -28.0375
    -8.7841  -7.7017  -7.6719  -7.5747  -7.3425  -7.2353  -7.2106  -7.1777
     3.8317   4.1461   4.3883   4.5564   4.5993   4.8474   4.9167   5.6787
     5.7545   6.0273   6.0539   6.1411   6.4506   6.5354   6.6455   7.2837
     7.3321   7.4476   7.6962   7.7361   7.7441   8.3328   8.4863   9.2926
    10.8106  10.8537  11.4515  11.4960  11.7337  11.9008  11.9567  12.5217
    12.5421  12.6561  12.7244  13.1494  13.6071  14.0150  14.1309  14.7543
    14.8743  15.4901  15.5910  15.8778  18.6057  21.4355

     occupation numbers 
     1.0000   1.0000   1.0000   1.0000   1.0000   1.0000   1.0000   1.0000
     1.0000   1.0000   1.0000   1.0000   1.0000   1.0000   1.0000   1.0000
     1.0000   1.0000   1.0000   1.0000   1.0000   1.0000   1.0000   1.0000
     1.0000   1.0000   1.0000   1.0000   1.0000   1.0000   1.0000   1.0000
     1.0000   1.0000   1.0000   1.0000   1.0000   1.0000   1.0000   1.0000
     1.0000   1.0000   1.0000   1.0000   1.0000   1.0000   1.0000   1.0000
     1.0000   1.0000   0.0000   0.0000   0.0000   0.0000   0.0000   0.0000
     0.0000   0.0000   0.0000   0.0000   0.0000   0.0000   0.0000   0.0000
     0.0000   0.0000   0.0000   0.0000   0.0000   0.0000

          k = 0.0000-0.3320 0.3320 (  7887 PWs)   bands (ev):

   -54.4913 -54.4876 -54.4388 -54.4385 -28.6222 -28.6203 -28.5979 -28.5873
   -28.5139 -28.5024 -28.1413 -28.1409 -28.0849 -28.0771 -28.0379 -28.0376
    -8.5285  -7.8948  -7.5980  -7.5661  -7.3883  -7.3225  -7.2592  -7.2188
     4.1723   4.3062   4.5612   4.7015   4.9238   5.1475   5.2377   5.6284
     5.6684   5.7511   6.0159   6.0503   6.3027   6.3221   6.3700   6.9223
     7.0318   7.0786   7.4443   7.8229   7.8540   8.0583   8.5194   8.9997
    10.9709  11.0303  11.7422  11.7616  11.9880  12.0240  12.1395  12.3939
    12.5974  12.6632  12.6928  12.9294  13.9570  14.2087  14.4783  14.6492
    14.7698  15.0731  15.1820  15.4932  19.3636  20.9199

     occupation numbers 
     1.0000   1.0000   1.0000   1.0000   1.0000   1.0000   1.0000   1.0000
     1.0000   1.0000   1.0000   1.0000   1.0000   1.0000   1.0000   1.0000
     1.0000   1.0000   1.0000   1.0000   1.0000   1.0000   1.0000   1.0000
     1.0000   1.0000   1.0000   1.0000   1.0000   1.0000   1.0000   1.0000
     1.0000   1.0000   1.0000   1.0000   1.0000   1.0000   1.0000   1.0000
     1.0000   1.0000   1.0000   1.0000   1.0000   1.0000   1.0000   1.0000
     1.0000   1.0000   0.0000   0.0000   0.0000   0.0000   0.0000   0.0000
     0.0000   0.0000   0.0000   0.0000   0.0000   0.0000   0.0000   0.0000
     0.0000   0.0000   0.0000   0.0000   0.0000   0.0000

          k = 0.0000 0.4427-0.4427 (  7924 PWs)   bands (ev):

   -54.4894 -54.4894 -54.4386 -54.4386 -28.6209 -28.6209 -28.5910 -28.5910
   -28.5096 -28.5096 -28.1417 -28.1417 -28.0811 -28.0811 -28.0377 -28.0377
    -8.2147  -8.2147  -7.5363  -7.5363  -7.3971  -7.3971  -7.2559  -7.2559
     4.3841   4.3841   4.6321   4.6321   5.2892   5.2892   5.4653   5.4653
     5.8254   5.8254   5.9516   5.9516   6.0658   6.0658   6.3988   6.3988
     6.9113   6.9113   7.6603   7.6603   7.9523   7.9523   8.7123   8.7123
    11.0626  11.0626  11.9196  11.9196  12.0984  12.0984  12.2038  12.2038
    12.6442  12.6442  12.7627  12.7627  14.2417  14.2417  14.7094  14.7094
    14.7973  14.7973  15.0432  15.0432  20.1844  20.1844

     occupation numbers 
     1.0000   1.0000   1.0000   1.0000   1.0000   1.0000   1.0000   1.0000
     1.0000   1.0000   1.0000   1.0000   1.0000   1.0000   1.0000   1.0000
     1.0000   1.0000   1.0000   1.0000   1.0000   1.0000   1.0000   1.0000
     1.0000   1.0000   1.0000   1.0000   1.0000   1.0000   1.0000   1.0000
     1.0000   1.0000   1.0000   1.0000   1.0000   1.0000   1.0000   1.0000
     1.0000   1.0000   1.0000   1.0000   1.0000   1.0000   1.0000   1.0000
     1.0000   1.0000   0.0000   0.0000   0.0000   0.0000   0.0000   0.0000
     0.0000   0.0000   0.0000   0.0000   0.0000   0.0000   0.0000   0.0000
     0.0000   0.0000   0.0000   0.0000   0.0000   0.0000

          k = 0.0000 0.1476 0.1476 (  7919 PWs)   bands (ev):

   -54.4936 -54.4853 -54.4389 -54.4383 -28.6245 -28.6209 -28.6096 -28.5893
   -28.5135 -28.4908 -28.1389 -28.1386 -28.0892 -28.0716 -28.0386 -28.0377
    -8.9058  -7.7127  -7.6988  -7.5262  -7.2650  -7.1843  -7.1814  -7.1554
     3.6262   4.0876   4.1581   4.1985   4.3248   4.8692   4.8756   5.6032
     5.6836   6.0171   6.0460   6.3194   6.5869   6.5921   6.7473   7.3211
     7.5518   7.5831   8.0457   8.1952   8.2422   8.4443   8.6011   9.4563
    10.6747  10.7556  11.1620  11.1891  11.6465  11.6585  11.7714  12.4819
    12.5247  12.6750  12.6794  13.2347  13.5278  13.9578  13.9674  14.8956
    14.9225  15.8390  15.8806  16.0630  18.2060  21.6186

     occupation numbers 
     1.0000   1.0000   1.0000   1.0000   1.0000   1.0000   1.0000   1.0000
     1.0000   1.0000   1.0000   1.0000   1.0000   1.0000   1.0000   1.0000
     1.0000   1.0000   1.0000   1.0000   1.0000   1.0000   1.0000   1.0000
     1.0000   1.0000   1.0000   1.0000   1.0000   1.0000   1.0000   1.0000
     1.0000   1.0000   1.0000   1.0000   1.0000   1.0000   1.0000   1.0000
     1.0000   1.0000   1.0000   1.0000   1.0000   1.0000   1.0000   1.0000
     1.0000   1.0000   0.0000   0.0000   0.0000   0.0000   0.0000   0.0000
     0.0000   0.0000   0.0000   0.0000   0.0000   0.0000   0.0000   0.0000
     0.0000   0.0000   0.0000   0.0000   0.0000   0.0000

          k = 0.0000 0.0369 0.2582 (  7929 PWs)   bands (ev):

   -54.4933 -54.4856 -54.4389 -54.4383 -28.6246 -28.6206 -28.6087 -28.5884
   -28.5141 -28.4917 -28.1403 -28.1378 -28.0886 -28.0724 -28.0385 -28.0377
    -8.8548  -7.7405  -7.6524  -7.5365  -7.3188  -7.2331  -7.1693  -7.1477
     3.6451   4.1082   4.1951   4.3712   4.4527   4.8450   4.9253   5.3462
     5.8450   5.9606   6.0779   6.2534   6.5423   6.6883   6.7248   7.3369
     7.3932   7.7441   7.9302   7.9664   8.1667   8.4521   8.4768   9.3731
    10.6094  10.8167  11.2487  11.3396  11.5611  11.8170  11.8767  12.3819
    12.5368  12.6832  12.7370  13.2209  13.5817  13.7880  14.2270  14.7765
    14.9857  15.5621  15.8977  16.0315  18.3993  21.7179

     occupation numbers 
     1.0000   1.0000   1.0000   1.0000   1.0000   1.0000   1.0000   1.0000
     1.0000   1.0000   1.0000   1.0000   1.0000   1.0000   1.0000   1.0000
     1.0000   1.0000   1.0000   1.0000   1.0000   1.0000   1.0000   1.0000
     1.0000   1.0000   1.0000   1.0000   1.0000   1.0000   1.0000   1.0000
     1.0000   1.0000   1.0000   1.0000   1.0000   1.0000   1.0000   1.0000
     1.0000   1.0000   1.0000   1.0000   1.0000   1.0000   1.0000   1.0000
     1.0000   1.0000   0.0000   0.0000   0.0000   0.0000   0.0000   0.0000
     0.0000   0.0000   0.0000   0.0000   0.0000   0.0000   0.0000   0.0000
     0.0000   0.0000   0.0000   0.0000   0.0000   0.0000

          k = 0.0000-0.0738 0.3689 (  7913 PWs)   bands (ev):

   -54.4924 -54.4865 -54.4388 -54.4384 -28.6245 -28.6204 -28.6057 -28.5874
   -28.5146 -28.4948 -28.1415 -28.1379 -28.0869 -28.0744 -28.0383 -28.0376
    -8.7078  -7.7428  -7.6987  -7.5120  -7.4111  -7.2860  -7.1989  -7.1523
     3.7329   4.1853   4.4359   4.5980   4.7684   4.8497   5.0185   5.1091
     5.7174   5.9664   6.0618   6.2968   6.5375   6.6050   6.7163   7.2460
     7.3942   7.6342   7.6692   7.7841   7.8841   8.2729   8.3539   9.1467
    10.6287  10.9419  11.3868  11.5405  11.7349  11.9915  12.0180  12.2702
    12.5575  12.6919  12.7823  13.1232  13.6505  13.9033  14.4602  14.7344
    14.9602  15.1352  15.6560  15.9145  18.9228  21.6155

     occupation numbers 
     1.0000   1.0000   1.0000   1.0000   1.0000   1.0000   1.0000   1.0000
     1.0000   1.0000   1.0000   1.0000   1.0000   1.0000   1.0000   1.0000
     1.0000   1.0000   1.0000   1.0000   1.0000   1.0000   1.0000   1.0000
     1.0000   1.0000   1.0000   1.0000   1.0000   1.0000   1.0000   1.0000
     1.0000   1.0000   1.0000   1.0000   1.0000   1.0000   1.0000   1.0000
     1.0000   1.0000   1.0000   1.0000   1.0000   1.0000   1.0000   1.0000
     1.0000   1.0000   0.0000   0.0000   0.0000   0.0000   0.0000   0.0000
     0.0000   0.0000   0.0000   0.0000   0.0000   0.0000   0.0000   0.0000
     0.0000   0.0000   0.0000   0.0000   0.0000   0.0000

          k = 0.0000-0.1845 0.4796 (  7895 PWs)   bands (ev):

   -54.4910 -54.4879 -54.4388 -54.4385 -28.6236 -28.6209 -28.6005 -28.5893
   -28.5122 -28.5001 -28.1417 -28.1391 -28.0843 -28.0774 -28.0380 -28.0376
    -8.4820  -7.9270  -7.6938  -7.5279  -7.4013  -7.2998  -7.2383  -7.1953
     3.9196   4.2917   4.5776   4.6696   4.8842   4.9455   5.1099   5.3810
     5.7326   5.9674   6.0535   6.2499   6.3615   6.5061   6.6031   7.0332
     7.2266   7.3590   7.5442   7.6433   7.9168   8.0587   8.3184   8.8280
    10.7896  11.0115  11.5150  11.7426  11.8442  12.0429  12.1716  12.3858
    12.5800  12.6461  12.7609  12.9513  13.7687  14.3007  14.3974  14.7344
    14.8544  15.0298  15.2620  15.6768  19.6448  21.1215

     occupation numbers 
     1.0000   1.0000   1.0000   1.0000   1.0000   1.0000   1.0000   1.0000
     1.0000   1.0000   1.0000   1.0000   1.0000   1.0000   1.0000   1.0000
     1.0000   1.0000   1.0000   1.0000   1.0000   1.0000   1.0000   1.0000
     1.0000   1.0000   1.0000   1.0000   1.0000   1.0000   1.0000   1.0000
     1.0000   1.0000   1.0000   1.0000   1.0000   1.0000   1.0000   1.0000
     1.0000   1.0000   1.0000   1.0000   1.0000   1.0000   1.0000   1.0000
     1.0000   1.0000   0.0000   0.0000   0.0000   0.0000   0.0000   0.0000
     0.0000   0.0000   0.0000   0.0000   0.0000   0.0000   0.0000   0.0000
     0.0000   0.0000   0.0000   0.0000   0.0000   0.0000

          k = 0.0000 0.5902-0.2951 (  7898 PWs)   bands (ev):

   -54.4894 -54.4894 -54.4386 -54.4386 -28.6221 -28.6221 -28.5943 -28.5943
   -28.5066 -28.5066 -28.1407 -28.1407 -28.0809 -28.0809 -28.0377 -28.0377
    -8.2071  -8.2071  -7.6202  -7.6202  -7.3185  -7.3185  -7.2484  -7.2484
     4.1732   4.1732   4.5936   4.5936   4.9335   4.9335   5.4985   5.4985
     5.9130   5.9130   6.0351   6.0351   6.4072   6.4072   6.6277   6.6277
     7.1427   7.1427   7.7103   7.7103   7.8851   7.8851   8.5105   8.5105
    10.9517  10.9517  11.6785  11.6785  11.9500  11.9500  12.4216  12.4216
    12.5860  12.5860  12.7831  12.7831  14.0606  14.0606  14.7116  14.7116
    14.7992  14.7992  15.3662  15.3662  20.4228  20.4228

     occupation numbers 
     1.0000   1.0000   1.0000   1.0000   1.0000   1.0000   1.0000   1.0000
     1.0000   1.0000   1.0000   1.0000   1.0000   1.0000   1.0000   1.0000
     1.0000   1.0000   1.0000   1.0000   1.0000   1.0000   1.0000   1.0000
     1.0000   1.0000   1.0000   1.0000   1.0000   1.0000   1.0000   1.0000
     1.0000   1.0000   1.0000   1.0000   1.0000   1.0000   1.0000   1.0000
     1.0000   1.0000   1.0000   1.0000   1.0000   1.0000   1.0000   1.0000
     1.0000   1.0000   0.0000   0.0000   0.0000   0.0000   0.0000   0.0000
     0.0000   0.0000   0.0000   0.0000   0.0000   0.0000   0.0000   0.0000
     0.0000   0.0000   0.0000   0.0000   0.0000   0.0000

          k = 0.0000 0.2951 0.2951 (  7891 PWs)   bands (ev):

   -54.4919 -54.4871 -54.4388 -54.4384 -28.6226 -28.6208 -28.6012 -28.5879
   -28.5139 -28.4993 -28.1409 -28.1407 -28.0862 -28.0760 -28.0386 -28.0380
    -8.6219  -7.8054  -7.6038  -7.5655  -7.3683  -7.2856  -7.2575  -7.2062
     4.0457   4.1915   4.2781   4.4536   4.5378   4.7281   5.0361   5.5460
     5.5649   5.8213   6.0836   6.1055   6.2756   6.2957   6.4567   7.2888
     7.4237   7.7940   7.8241   7.9494   8.4506   8.4601   8.6744   9.1234
    10.8787  10.9780  11.4134  11.4441  11.8041  11.8485  12.0921  12.2274
    12.3064  12.6472  12.7403  12.9761  14.0610  14.3365  14.3445  14.7258
    14.7693  15.4731  15.5639  15.6407  19.0777  21.0837

     occupation numbers 
     1.0000   1.0000   1.0000   1.0000   1.0000   1.0000   1.0000   1.0000
     1.0000   1.0000   1.0000   1.0000   1.0000   1.0000   1.0000   1.0000
     1.0000   1.0000   1.0000   1.0000   1.0000   1.0000   1.0000   1.0000
     1.0000   1.0000   1.0000   1.0000   1.0000   1.0000   1.0000   1.0000
     1.0000   1.0000   1.0000   1.0000   1.0000   1.0000   1.0000   1.0000
     1.0000   1.0000   1.0000   1.0000   1.0000   1.0000   1.0000   1.0000
     1.0000   1.0000   0.0000   0.0000   0.0000   0.0000   0.0000   0.0000
     0.0000   0.0000   0.0000   0.0000   0.0000   0.0000   0.0000   0.0000
     0.0000   0.0000   0.0000   0.0000   0.0000   0.0000

          k = 0.0000 0.1845 0.4058 (  7900 PWs)   bands (ev):

   -54.4917 -54.4873 -54.4388 -54.4384 -28.6235 -28.6207 -28.6022 -28.5883
   -28.5135 -28.4984 -28.1418 -28.1392 -28.0857 -28.0763 -28.0385 -28.0379
    -8.5891  -7.8272  -7.6758  -7.4851  -7.4235  -7.3050  -7.2148  -7.1987
     3.9103   4.1353   4.4026   4.5325   4.5958   4.7503   4.9805   5.3884
     5.7117   5.7902   6.0782   6.1903   6.3237   6.4243   6.4870   7.3700
     7.4624   7.6814   7.8773   7.9515   8.2255   8.4299   8.5847   9.0247
    10.7968  10.9513  11.3285  11.5804  11.7466  11.8589  12.0538  12.1945
    12.4927  12.6332  12.7491  12.9917  13.9835  14.1074  14.5364  14.8068
    14.8698  15.1530  15.5160  15.8474  19.2507  21.2038

     occupation numbers 
     1.0000   1.0000   1.0000   1.0000   1.0000   1.0000   1.0000   1.0000
     1.0000   1.0000   1.0000   1.0000   1.0000   1.0000   1.0000   1.0000
     1.0000   1.0000   1.0000   1.0000   1.0000   1.0000   1.0000   1.0000
     1.0000   1.0000   1.0000   1.0000   1.0000   1.0000   1.0000   1.0000
     1.0000   1.0000   1.0000   1.0000   1.0000   1.0000   1.0000   1.0000
     1.0000   1.0000   1.0000   1.0000   1.0000   1.0000   1.0000   1.0000
     1.0000   1.0000   0.0000   0.0000   0.0000   0.0000   0.0000   0.0000
     0.0000   0.0000   0.0000   0.0000   0.0000   0.0000   0.0000   0.0000
     0.0000   0.0000   0.0000   0.0000   0.0000   0.0000

          k = 0.0000 0.0738 0.5165 (  7900 PWs)   bands (ev):

   -54.4911 -54.4878 -54.4387 -54.4385 -28.6248 -28.6215 -28.6037 -28.5907
   -28.5110 -28.4971 -28.1415 -28.1379 -28.0844 -28.0772 -28.0383 -28.0379
    -8.4959  -7.8995  -7.7358  -7.5414  -7.3688  -7.3042  -7.2327  -7.1531
     3.7668   4.1062   4.4236   4.5354   4.7116   4.7798   4.9508   5.4654
     5.7681   5.9218   6.0545   6.2713   6.4791   6.6123   6.6962   7.3774
     7.5059   7.6060   7.8107   7.8926   7.9649   8.2517   8.3685   8.7863
    10.6321  10.9160  11.2823  11.5141  11.5991  11.9459  12.1158  12.3789
    12.5761  12.6531  12.7490  13.0018  13.7856  14.1338  14.4848  14.7192
    14.9697  15.1766  15.3600  15.9970  19.7129  21.5092

     occupation numbers 
     1.0000   1.0000   1.0000   1.0000   1.0000   1.0000   1.0000   1.0000
     1.0000   1.0000   1.0000   1.0000   1.0000   1.0000   1.0000   1.0000
     1.0000   1.0000   1.0000   1.0000   1.0000   1.0000   1.0000   1.0000
     1.0000   1.0000   1.0000   1.0000   1.0000   1.0000   1.0000   1.0000
     1.0000   1.0000   1.0000   1.0000   1.0000   1.0000   1.0000   1.0000
     1.0000   1.0000   1.0000   1.0000   1.0000   1.0000   1.0000   1.0000
     1.0000   1.0000   0.0000   0.0000   0.0000   0.0000   0.0000   0.0000
     0.0000   0.0000   0.0000   0.0000   0.0000   0.0000   0.0000   0.0000
     0.0000   0.0000   0.0000   0.0000   0.0000   0.0000

          k = 0.0000-0.0369 0.6271 (  7896 PWs)   bands (ev):

   -54.4903 -54.4885 -54.4387 -54.4386 -28.6253 -28.6230 -28.6033 -28.5953
   -28.5063 -28.4979 -28.1402 -28.1376 -28.0825 -28.0786 -28.0380 -28.0378
    -8.3560  -8.0289  -7.7477  -7.6402  -7.3062  -7.2617  -7.2546  -7.1483
     3.7461   4.0799   4.2354   4.4262   4.7381   4.7978   5.2801   5.7616
     5.8765   5.9193   6.0039   6.4249   6.6545   6.7631   6.8392   7.2418
     7.3791   7.6337   7.6612   7.7704   7.8879   8.1360   8.1669   8.5045
    10.5793  10.8350  11.2342  11.3715  11.5511  11.8636  12.3912  12.5321
    12.5637  12.6665  12.7624  12.9522  13.7217  14.0956  14.3524  14.7725
    14.9291  14.9807  15.6205  16.0004  20.3392  21.5282

     occupation numbers 
     1.0000   1.0000   1.0000   1.0000   1.0000   1.0000   1.0000   1.0000
     1.0000   1.0000   1.0000   1.0000   1.0000   1.0000   1.0000   1.0000
     1.0000   1.0000   1.0000   1.0000   1.0000   1.0000   1.0000   1.0000
     1.0000   1.0000   1.0000   1.0000   1.0000   1.0000   1.0000   1.0000
     1.0000   1.0000   1.0000   1.0000   1.0000   1.0000   1.0000   1.0000
     1.0000   1.0000   1.0000   1.0000   1.0000   1.0000   1.0000   1.0000
     1.0000   1.0000   0.0000   0.0000   0.0000   0.0000   0.0000   0.0000
     0.0000   0.0000   0.0000   0.0000   0.0000   0.0000   0.0000   0.0000
     0.0000   0.0000   0.0000   0.0000   0.0000   0.0000

          k = 0.0000 0.7378-0.1476 (  7870 PWs)   bands (ev):

   -54.4894 -54.4894 -54.4386 -54.4386 -28.6246 -28.6246 -28.6002 -28.6002
   -28.5012 -28.5012 -28.1386 -28.1386 -28.0805 -28.0805 -28.0378 -28.0378
    -8.1912  -8.1912  -7.7131  -7.7131  -7.2834  -7.2834  -7.1866  -7.1866
     3.8693   3.8693   4.3008   4.3008   4.7702   4.7702   5.6693   5.6693
     5.9267   5.9267   6.2255   6.2255   6.7374   6.7374   7.0527   7.0527
     7.4570   7.4570   7.6916   7.6916   8.0016   8.0016   8.2218   8.2218
    10.6924  10.6924  11.2456  11.2456  11.6959  11.6959  12.5434  12.5434
    12.6236  12.6236  12.8384  12.8384  13.8327  13.8327  14.6075  14.6075
    14.9005  14.9005  15.8683  15.8683  20.9972  20.9972

     occupation numbers 
     1.0000   1.0000   1.0000   1.0000   1.0000   1.0000   1.0000   1.0000
     1.0000   1.0000   1.0000   1.0000   1.0000   1.0000   1.0000   1.0000
     1.0000   1.0000   1.0000   1.0000   1.0000   1.0000   1.0000   1.0000
     1.0000   1.0000   1.0000   1.0000   1.0000   1.0000   1.0000   1.0000
     1.0000   1.0000   1.0000   1.0000   1.0000   1.0000   1.0000   1.0000
     1.0000   1.0000   1.0000   1.0000   1.0000   1.0000   1.0000   1.0000
     1.0000   1.0000   0.0000   0.0000   0.0000   0.0000   0.0000   0.0000
     0.0000   0.0000   0.0000   0.0000   0.0000   0.0000   0.0000   0.0000
     0.0000   0.0000   0.0000   0.0000   0.0000   0.0000

          k = 0.0000-0.4427-0.4427 (  7918 PWs)   bands (ev):

   -54.4895 -54.4895 -54.4386 -54.4386 -28.6211 -28.6211 -28.5921 -28.5921
   -28.5088 -28.5088 -28.1418 -28.1418 -28.0814 -28.0814 -28.0383 -28.0383
    -8.2148  -8.2148  -7.4969  -7.4969  -7.4044  -7.4044  -7.2618  -7.2618
     4.3669   4.3669   4.4377   4.4377   4.5292   4.5292   5.3339   5.3339
     5.7740   5.7740   6.0034   6.0034   6.1715   6.1715   6.5065   6.5065
     7.5904   7.5904   7.9146   7.9146   8.6202   8.6202   8.7908   8.7908
    11.0474  11.0474  11.7200  11.7200  11.7776  11.7776  12.0091  12.0091
    12.5638  12.5638  12.7631  12.7631  14.5355  14.5355  14.6988  14.6988
    14.9475  14.9475  15.2379  15.2379  20.1513  20.1513

     occupation numbers 
     1.0000   1.0000   1.0000   1.0000   1.0000   1.0000   1.0000   1.0000
     1.0000   1.0000   1.0000   1.0000   1.0000   1.0000   1.0000   1.0000
     1.0000   1.0000   1.0000   1.0000   1.0000   1.0000   1.0000   1.0000
     1.0000   1.0000   1.0000   1.0000   1.0000   1.0000   1.0000   1.0000
     1.0000   1.0000   1.0000   1.0000   1.0000   1.0000   1.0000   1.0000
     1.0000   1.0000   1.0000   1.0000   1.0000   1.0000   1.0000   1.0000
     1.0000   1.0000   0.0000   0.0000   0.0000   0.0000   0.0000   0.0000
     0.0000   0.0000   0.0000   0.0000   0.0000   0.0000   0.0000   0.0000
     0.0000   0.0000   0.0000   0.0000   0.0000   0.0000

          k = 0.0000-0.5534-0.3320 (  7890 PWs)   bands (ev):

   -54.4895 -54.4895 -54.4386 -54.4386 -28.6218 -28.6218 -28.5938 -28.5938
   -28.5072 -28.5072 -28.1412 -28.1412 -28.0813 -28.0813 -28.0383 -28.0383
    -8.2103  -8.2103  -7.5709  -7.5709  -7.3341  -7.3341  -7.2605  -7.2605
     4.2397   4.2397   4.3671   4.3671   4.6086   4.6086   5.3306   5.3306
     5.8529   5.8529   6.1063   6.1063   6.1803   6.1803   6.6425   6.6425
     7.6320   7.6320   7.8853   7.8853   8.4606   8.4606   8.7374   8.7374
    10.9913  10.9913  11.4738  11.4738  11.8464  11.8464  12.1461  12.1461
    12.6033  12.6033  12.7443  12.7443  14.3820  14.3820  14.6991  14.6991
    14.8531  14.8531  15.4746  15.4746  20.2944  20.2944

     occupation numbers 
     1.0000   1.0000   1.0000   1.0000   1.0000   1.0000   1.0000   1.0000
     1.0000   1.0000   1.0000   1.0000   1.0000   1.0000   1.0000   1.0000
     1.0000   1.0000   1.0000   1.0000   1.0000   1.0000   1.0000   1.0000
     1.0000   1.0000   1.0000   1.0000   1.0000   1.0000   1.0000   1.0000
     1.0000   1.0000   1.0000   1.0000   1.0000   1.0000   1.0000   1.0000
     1.0000   1.0000   1.0000   1.0000   1.0000   1.0000   1.0000   1.0000
     1.0000   1.0000   0.0000   0.0000   0.0000   0.0000   0.0000   0.0000
     0.0000   0.0000   0.0000   0.0000   0.0000   0.0000   0.0000   0.0000
     0.0000   0.0000   0.0000   0.0000   0.0000   0.0000

          k = 0.0000-0.6640-0.2213 (  7900 PWs)   bands (ev):

   -54.4894 -54.4894 -54.4386 -54.4386 -28.6235 -28.6235 -28.5978 -28.5978
   -28.5035 -28.5035 -28.1397 -28.1397 -28.0808 -28.0808 -28.0381 -28.0381
    -8.1992  -8.1992  -7.6622  -7.6622  -7.2828  -7.2828  -7.2269  -7.2269
     4.0297   4.0297   4.2111   4.2111   4.7309   4.7309   5.4248   5.4248
     5.9661   5.9661   6.1093   6.1093   6.4486   6.4486   6.9590   6.9590
     7.6535   7.6535   7.8596   7.8596   8.1243   8.1243   8.5720   8.5720
    10.8373  10.8373  11.2245  11.2245  11.7361  11.7361  12.3930  12.3930
    12.6347  12.6347  12.7695  12.7695  14.0632  14.0632  14.6967  14.6967
    14.8270  14.8270  15.7911  15.7911  20.6744  20.6744

     occupation numbers 
     1.0000   1.0000   1.0000   1.0000   1.0000   1.0000   1.0000   1.0000
     1.0000   1.0000   1.0000   1.0000   1.0000   1.0000   1.0000   1.0000
     1.0000   1.0000   1.0000   1.0000   1.0000   1.0000   1.0000   1.0000
     1.0000   1.0000   1.0000   1.0000   1.0000   1.0000   1.0000   1.0000
     1.0000   1.0000   1.0000   1.0000   1.0000   1.0000   1.0000   1.0000
     1.0000   1.0000   1.0000   1.0000   1.0000   1.0000   1.0000   1.0000
     1.0000   1.0000   0.0000   0.0000   0.0000   0.0000   0.0000   0.0000
     0.0000   0.0000   0.0000   0.0000   0.0000   0.0000   0.0000   0.0000
     0.0000   0.0000   0.0000   0.0000   0.0000   0.0000

          k = 0.0000-0.7747-0.1107 (  7874 PWs)   bands (ev):

   -54.4894 -54.4894 -54.4386 -54.4386 -28.6251 -28.6251 -28.6015 -28.6015
   -28.5001 -28.5001 -28.1382 -28.1382 -28.0804 -28.0804 -28.0380 -28.0380
    -8.1878  -8.1878  -7.7258  -7.7258  -7.2816  -7.2816  -7.1710  -7.1710
     3.8247   3.8247   4.1538   4.1538   4.7649   4.7649   5.6258   5.6258
     5.9147   5.9147   6.3672   6.3672   6.7068   6.7068   7.1007   7.1007
     7.4716   7.4716   7.8763   7.8763   7.9957   7.9957   8.3903   8.3903
    10.6543  10.6543  11.0332  11.0332  11.6224  11.6224  12.5287  12.5287
    12.6411  12.6411  12.8523  12.8523  13.8287  13.8287  14.5714  14.5714
    14.9402  14.9402  16.0087  16.0087  21.1498  21.1498

     occupation numbers 
     1.0000   1.0000   1.0000   1.0000   1.0000   1.0000   1.0000   1.0000
     1.0000   1.0000   1.0000   1.0000   1.0000   1.0000   1.0000   1.0000
     1.0000   1.0000   1.0000   1.0000   1.0000   1.0000   1.0000   1.0000
     1.0000   1.0000   1.0000   1.0000   1.0000   1.0000   1.0000   1.0000
     1.0000   1.0000   1.0000   1.0000   1.0000   1.0000   1.0000   1.0000
     1.0000   1.0000   1.0000   1.0000   1.0000   1.0000   1.0000   1.0000
     1.0000   1.0000   1.0000   1.0000   0.0000   0.0000   0.0000   0.0000
     0.0000   0.0000   0.0000   0.0000   0.0000   0.0000   0.0000   0.0000
     0.0000   0.0000   0.0000   0.0000   0.0000   0.0000

          k = 0.0000 0.0000-0.8854 (  7840 PWs)   bands (ev):

   -54.4894 -54.4894 -54.4386 -54.4386 -28.6258 -28.6258 -28.6030 -28.6030
   -28.4988 -28.4988 -28.1376 -28.1376 -28.0802 -28.0802 -28.0379 -28.0379
    -8.1829  -8.1829  -7.7485  -7.7485  -7.2828  -7.2828  -7.1500  -7.1500
     3.7479   3.7479   4.1385   4.1385   4.7661   4.7661   5.7400   5.7400
     5.8838   5.8838   6.5988   6.5988   6.8065   6.8065   7.0613   7.0613
     7.2253   7.2253   7.9244   7.9244   8.0688   8.0688   8.2950   8.2950
    10.5661  10.5661  10.9564  10.9564  11.5783  11.5783  12.5381  12.5381
    12.6749  12.6749  12.8874  12.8874  13.7461  13.7461  14.5240  14.5240
    14.9847  14.9847  16.0849  16.0849  21.4184  21.4184

     occupation numbers 
     1.0000   1.0000   1.0000   1.0000   1.0000   1.0000   1.0000   1.0000
     1.0000   1.0000   1.0000   1.0000   1.0000   1.0000   1.0000   1.0000
     1.0000   1.0000   1.0000   1.0000   1.0000   1.0000   1.0000   1.0000
     1.0000   1.0000   1.0000   1.0000   1.0000   1.0000   1.0000   1.0000
     1.0000   1.0000   1.0000   1.0000   1.0000   1.0000   1.0000   1.0000
     1.0000   1.0000   1.0000   1.0000   1.0000   1.0000   1.0000   1.0000
     1.0000   1.0000   1.0000   1.0000   0.0000   0.0000   0.0000   0.0000
     0.0000   0.0000   0.0000   0.0000   0.0000   0.0000   0.0000   0.0000
     0.0000   0.0000   0.0000   0.0000   0.0000   0.0000

          k = 0.1667-0.0738 0.0738 (  7925 PWs)   bands (ev):

   -54.4926 -54.4842 -54.4406 -54.4388 -28.6265 -28.6190 -28.6089 -28.5897
   -28.5008 -28.4770 -28.1422 -28.1371 -28.0960 -28.0856 -28.0416 -28.0396
    -8.9143  -7.7803  -7.7048  -7.4833  -7.2132  -7.2031  -7.1690  -7.1548
     3.5814   4.0580   4.2103   4.2781   4.4598   4.8171   4.8279   5.6332
     5.7678   5.8947   5.9679   6.4316   6.6622   6.8752   6.8934   7.0418
     7.4157   7.4418   7.9178   8.0973   8.2373   8.4357   8.6071   9.4860
    10.6663  10.7237  11.2009  11.2767  11.5065  11.6494  11.7876  12.5194
    12.5199  12.6315  12.7914  13.3020  13.5080  13.7440  13.8008  14.8512
    14.9510  15.8659  15.8886  16.1384  18.1315  22.0019

     occupation numbers 
     1.0000   1.0000   1.0000   1.0000   1.0000   1.0000   1.0000   1.0000
     1.0000   1.0000   1.0000   1.0000   1.0000   1.0000   1.0000   1.0000
     1.0000   1.0000   1.0000   1.0000   1.0000   1.0000   1.0000   1.0000
     1.0000   1.0000   1.0000   1.0000   1.0000   1.0000   1.0000   1.0000
     1.0000   1.0000   1.0000   1.0000   1.0000   1.0000   1.0000   1.0000
     1.0000   1.0000   1.0000   1.0000   1.0000   1.0000   1.0000   1.0000
     1.0000   1.0000   0.0000   0.0000   0.0000   0.0000   0.0000   0.0000
     0.0000   0.0000   0.0000   0.0000   0.0000   0.0000   0.0000   0.0000
     0.0000   0.0000   0.0000   0.0000   0.0000   0.0000

          k = 0.1667-0.1845 0.1845 (  7902 PWs)   bands (ev):

   -54.4918 -54.4849 -54.4410 -54.4384 -28.6267 -28.6178 -28.6051 -28.5882
   -28.5026 -28.4799 -28.1437 -28.1368 -28.0935 -28.0893 -28.0417 -28.0392
    -8.7869  -7.8034  -7.6483  -7.5059  -7.3015  -7.2731  -7.1857  -7.1764
     3.8031   4.1520   4.3218   4.4567   4.6866   4.8271   4.9342   5.5428
     5.7794   5.7884   6.0421   6.2975   6.4977   6.7268   6.8101   6.8962
     7.2861   7.5934   7.7438   7.9264   8.0134   8.1244   8.5408   9.3305
    10.8102  10.8503  11.4439  11.4635  11.7026  11.8420  11.9147  12.4589
    12.5717  12.5967  12.7725  13.1780  13.6897  13.8305  13.9561  14.7490
    14.9029  15.5236  15.6657  15.9636  18.5789  21.7213

     occupation numbers 
     1.0000   1.0000   1.0000   1.0000   1.0000   1.0000   1.0000   1.0000
     1.0000   1.0000   1.0000   1.0000   1.0000   1.0000   1.0000   1.0000
     1.0000   1.0000   1.0000   1.0000   1.0000   1.0000   1.0000   1.0000
     1.0000   1.0000   1.0000   1.0000   1.0000   1.0000   1.0000   1.0000
     1.0000   1.0000   1.0000   1.0000   1.0000   1.0000   1.0000   1.0000
     1.0000   1.0000   1.0000   1.0000   1.0000   1.0000   1.0000   1.0000
     1.0000   1.0000   0.0000   0.0000   0.0000   0.0000   0.0000   0.0000
     0.0000   0.0000   0.0000   0.0000   0.0000   0.0000   0.0000   0.0000
     0.0000   0.0000   0.0000   0.0000   0.0000   0.0000

          k = 0.1667-0.2951 0.2951 (  7888 PWs)   bands (ev):

   -54.4905 -54.4862 -54.4412 -54.4383 -28.6256 -28.6169 -28.5994 -28.5877
   -28.5031 -28.4852 -28.1453 -28.1374 -28.0933 -28.0905 -28.0417 -28.0391
    -8.5648  -7.8065  -7.7688  -7.4852  -7.3580  -7.3355  -7.2236  -7.2114
     4.1232   4.3346   4.5672   4.6491   4.7252   5.0382   5.2068   5.5200
     5.6790   5.7395   5.8828   6.2473   6.3587   6.5315   6.6049   6.6180
     7.1486   7.2554   7.7487   7.7814   7.8032   7.9180   8.5647   9.0904
    10.9605  11.0315  11.6483  11.6889  11.9322  12.0057  12.1021  12.4190
    12.5118  12.6492  12.7491  12.9726  13.9524  14.0329  14.1976  14.6763
    14.8660  15.1466  15.2664  15.6582  19.2812  21.5466

     occupation numbers 
     1.0000   1.0000   1.0000   1.0000   1.0000   1.0000   1.0000   1.0000
     1.0000   1.0000   1.0000   1.0000   1.0000   1.0000   1.0000   1.0000
     1.0000   1.0000   1.0000   1.0000   1.0000   1.0000   1.0000   1.0000
     1.0000   1.0000   1.0000   1.0000   1.0000   1.0000   1.0000   1.0000
     1.0000   1.0000   1.0000   1.0000   1.0000   1.0000   1.0000   1.0000
     1.0000   1.0000   1.0000   1.0000   1.0000   1.0000   1.0000   1.0000
     1.0000   1.0000   0.0000   0.0000   0.0000   0.0000   0.0000   0.0000
     0.0000   0.0000   0.0000   0.0000   0.0000   0.0000   0.0000   0.0000
     0.0000   0.0000   0.0000   0.0000   0.0000   0.0000

          k = 0.1667-0.4058 0.4058 (  7910 PWs)   bands (ev):

   -54.4889 -54.4878 -54.4412 -54.4383 -28.6239 -28.6169 -28.5938 -28.5900
   -28.5006 -28.4911 -28.1462 -28.1383 -28.0968 -28.0872 -28.0416 -28.0393
    -8.2745  -8.0642  -7.8004  -7.3959  -7.3802  -7.3792  -7.2548  -7.2487
     4.3941   4.4888   4.6544   4.6578   4.9396   5.2164   5.4732   5.4982
     5.5636   5.8322   5.8361   6.1330   6.2006   6.2593   6.3947   6.5273
     6.7016   7.3075   7.4987   7.6686   7.8959   7.9321   8.7196   8.8188
    11.0782  11.0968  11.7780  11.8146  11.9635  12.1412  12.2043  12.4207
    12.4327  12.6848  12.7851  12.8137  14.1448  14.1885  14.4415  14.7425
    14.7629  14.8817  15.1251  15.2673  20.0909  20.6176

     occupation numbers 
     1.0000   1.0000   1.0000   1.0000   1.0000   1.0000   1.0000   1.0000
     1.0000   1.0000   1.0000   1.0000   1.0000   1.0000   1.0000   1.0000
     1.0000   1.0000   1.0000   1.0000   1.0000   1.0000   1.0000   1.0000
     1.0000   1.0000   1.0000   1.0000   1.0000   1.0000   1.0000   1.0000
     1.0000   1.0000   1.0000   1.0000   1.0000   1.0000   1.0000   1.0000
     1.0000   1.0000   1.0000   1.0000   1.0000   1.0000   1.0000   1.0000
     1.0000   1.0000   0.0000   0.0000   0.0000   0.0000   0.0000   0.0000
     0.0000   0.0000   0.0000   0.0000   0.0000   0.0000   0.0000   0.0000
     0.0000   0.0000   0.0000   0.0000   0.0000   0.0000

          k = 0.1667 0.3689-0.3689 (  7891 PWs)   bands (ev):

   -54.4895 -54.4872 -54.4409 -54.4386 -28.6223 -28.6181 -28.5953 -28.5901
   -28.4958 -28.4949 -28.1459 -28.1389 -28.0992 -28.0842 -28.0413 -28.0397
    -8.3779  -7.9602  -7.7910  -7.4642  -7.3950  -7.2949  -7.2701  -7.2359
     4.3475   4.4195   4.6091   4.7096   5.0849   5.1665   5.2698   5.2939
     5.6246   5.7056   6.0449   6.2218   6.2828   6.3340   6.4071   6.5974
     6.6558   7.2738   7.6324   7.7025   7.9024   7.9652   8.5704   8.9445
    11.0577  11.0889  11.6631  11.7656  11.8880  11.9903  12.2895  12.3814
    12.5146  12.6537  12.8127  12.8469  14.1473  14.2809  14.3748  14.4565
    14.7751  14.9161  15.3013  15.4825  19.8168  20.8594

     occupation numbers 
     1.0000   1.0000   1.0000   1.0000   1.0000   1.0000   1.0000   1.0000
     1.0000   1.0000   1.0000   1.0000   1.0000   1.0000   1.0000   1.0000
     1.0000   1.0000   1.0000   1.0000   1.0000   1.0000   1.0000   1.0000
     1.0000   1.0000   1.0000   1.0000   1.0000   1.0000   1.0000   1.0000
     1.0000   1.0000   1.0000   1.0000   1.0000   1.0000   1.0000   1.0000
     1.0000   1.0000   1.0000   1.0000   1.0000   1.0000   1.0000   1.0000
     1.0000   1.0000   0.0000   0.0000   0.0000   0.0000   0.0000   0.0000
     0.0000   0.0000   0.0000   0.0000   0.0000   0.0000   0.0000   0.0000
     0.0000   0.0000   0.0000   0.0000   0.0000   0.0000

          k = 0.1667 0.2582-0.2582 (  7894 PWs)   bands (ev):

   -54.4910 -54.4857 -54.4405 -54.4390 -28.6213 -28.6202 -28.6017 -28.5891
   -28.4982 -28.4878 -28.1440 -28.1393 -28.1001 -28.0821 -28.0410 -28.0403
    -8.6491  -7.8105  -7.6478  -7.5632  -7.3907  -7.2520  -7.2212  -7.1977
     4.0109   4.3043   4.5541   4.6756   4.7078   4.8466   5.0607   5.3954
     5.5327   5.8894   6.0344   6.3825   6.4749   6.5174   6.6853   6.8069
     7.1675   7.2415   7.7132   7.7523   7.9696   8.2163   8.4155   9.1868
    10.9498  10.9553  11.4524  11.4774  11.7140  11.9077  12.1559  12.4276
    12.4466  12.7010  12.7869  13.0525  13.7850  14.1406  14.2585  14.5162
    14.7033  15.2772  15.6879  15.8490  19.0330  21.3829

     occupation numbers 
     1.0000   1.0000   1.0000   1.0000   1.0000   1.0000   1.0000   1.0000
     1.0000   1.0000   1.0000   1.0000   1.0000   1.0000   1.0000   1.0000
     1.0000   1.0000   1.0000   1.0000   1.0000   1.0000   1.0000   1.0000
     1.0000   1.0000   1.0000   1.0000   1.0000   1.0000   1.0000   1.0000
     1.0000   1.0000   1.0000   1.0000   1.0000   1.0000   1.0000   1.0000
     1.0000   1.0000   1.0000   1.0000   1.0000   1.0000   1.0000   1.0000
     1.0000   1.0000   0.0000   0.0000   0.0000   0.0000   0.0000   0.0000
     0.0000   0.0000   0.0000   0.0000   0.0000   0.0000   0.0000   0.0000
     0.0000   0.0000   0.0000   0.0000   0.0000   0.0000

          k = 0.1667 0.1476-0.1476 (  7918 PWs)   bands (ev):

   -54.4922 -54.4846 -54.4399 -54.4396 -28.6227 -28.6206 -28.6071 -28.5899
   -28.4989 -28.4814 -28.1412 -28.1400 -28.0995 -28.0816 -28.0408 -28.0405
    -8.8415  -7.7925  -7.6567  -7.5006  -7.3257  -7.1963  -7.1776  -7.1684
     3.7067   4.1939   4.3651   4.3886   4.5100   4.7243   4.8643   5.5306
[...]
     1.0000   1.0000   1.0000   1.0000   1.0000   1.0000   1.0000   1.0000
     1.0000   1.0000   1.0000   1.0000   1.0000   1.0000   1.0000   1.0000
     1.0000   1.0000   1.0000   1.0000   1.0000   1.0000   1.0000   1.0000
     1.0000   1.0000   1.0000   1.0000   1.0000   1.0000   1.0000   1.0000
     1.0000   1.0000   0.0000   0.0000   0.0000   0.0000   0.0000   0.0000
     0.0000   0.0000   0.0000   0.0000   0.0000   0.0000   0.0000   0.0000
     0.0000   0.0000   0.0000   0.0000   0.0000   0.0000

          k = 0.3333 0.2582 0.6271 (  7884 PWs)   bands (ev):

   -54.4860 -54.4860 -54.4421 -54.4421 -28.6212 -28.6212 -28.5953 -28.5953
   -28.4633 -28.4633 -28.1547 -28.1547 -28.1053 -28.1053 -28.0463 -28.0463
    -8.0333  -8.0333  -7.6990  -7.6990  -7.3751  -7.3751  -7.2780  -7.2780
     4.2579   4.2579   4.4347   4.4347   4.6300   4.6300   5.1240   5.1240
     5.8299   5.8299   6.3293   6.3293   6.6527   6.6527   6.9742   6.9742
     7.2271   7.2271   7.5402   7.5402   8.3218   8.3218   8.6150   8.6150
    11.0985  11.0985  11.4214  11.4214  11.6959  11.6959  12.2350  12.2350
    12.5456  12.5456  12.7059  12.7059  14.0580  14.0580  14.4143  14.4143
    14.9883  14.9883  15.7522  15.7522  21.0406  21.0406

     occupation numbers 
     1.0000   1.0000   1.0000   1.0000   1.0000   1.0000   1.0000   1.0000
     1.0000   1.0000   1.0000   1.0000   1.0000   1.0000   1.0000   1.0000
     1.0000   1.0000   1.0000   1.0000   1.0000   1.0000   1.0000   1.0000
     1.0000   1.0000   1.0000   1.0000   1.0000   1.0000   1.0000   1.0000
     1.0000   1.0000   1.0000   1.0000   1.0000   1.0000   1.0000   1.0000
     1.0000   1.0000   1.0000   1.0000   1.0000   1.0000   1.0000   1.0000
     1.0000   1.0000   0.0000   0.0000   0.0000   0.0000   0.0000   0.0000
     0.0000   0.0000   0.0000   0.0000   0.0000   0.0000   0.0000   0.0000
     0.0000   0.0000   0.0000   0.0000   0.0000   0.0000

          k = 0.3333 0.3689 0.5165 (  7882 PWs)   bands (ev):

   -54.4860 -54.4860 -54.4421 -54.4421 -28.6199 -28.6199 -28.5949 -28.5949
   -28.4643 -28.4643 -28.1552 -28.1552 -28.1053 -28.1053 -28.0467 -28.0467
    -8.0496  -8.0496  -7.6286  -7.6286  -7.4311  -7.4311  -7.2788  -7.2788
     4.3366   4.3366   4.4672   4.4672   4.6455   4.6455   5.2097   5.2097
     5.8534   5.8534   6.0735   6.0735   6.4877   6.4877   6.8791   6.8791
     7.1705   7.1705   7.6161   7.6161   8.4166   8.4166   8.7356   8.7356
    11.1391  11.1391  11.5538  11.5538  11.8314  11.8314  12.0828  12.0828
    12.5431  12.5431  12.7166  12.7166  14.0224  14.0224  14.5727  14.5727
    14.9727  14.9727  15.5981  15.5981  20.8353  20.8354

     occupation numbers 
     1.0000   1.0000   1.0000   1.0000   1.0000   1.0000   1.0000   1.0000
     1.0000   1.0000   1.0000   1.0000   1.0000   1.0000   1.0000   1.0000
     1.0000   1.0000   1.0000   1.0000   1.0000   1.0000   1.0000   1.0000
     1.0000   1.0000   1.0000   1.0000   1.0000   1.0000   1.0000   1.0000
     1.0000   1.0000   1.0000   1.0000   1.0000   1.0000   1.0000   1.0000
     1.0000   1.0000   1.0000   1.0000   1.0000   1.0000   1.0000   1.0000
     0.0000   0.0000   0.0000   0.0000   0.0000   0.0000   0.0000   0.0000
     0.0000   0.0000   0.0000   0.0000   0.0000   0.0000   0.0000   0.0000
     0.0000   0.0000   0.0000   0.0000   0.0000   0.0000

          k = 0.3333 0.4796 0.4058 (  7870 PWs)   bands (ev):

   -54.4860 -54.4860 -54.4421 -54.4421 -28.6192 -28.6192 -28.5956 -28.5956
   -28.4642 -28.4642 -28.1549 -28.1549 -28.1053 -28.1053 -28.0470 -28.0470
    -8.0532  -8.0532  -7.6161  -7.6161  -7.4392  -7.4392  -7.2813  -7.2813
     4.3351   4.3351   4.4511   4.4511   4.7509   4.7509   5.3047   5.3047
     5.7811   5.7811   5.9963   5.9963   6.4511   6.4511   6.7999   6.7999
     7.1899   7.1899   7.6181   7.6181   8.4248   8.4248   8.7363   8.7363
    11.1211  11.1211  11.5707  11.5707  11.8845  11.8845  12.1137  12.1137
    12.5421  12.5421  12.7391  12.7391  13.9466  13.9466  14.6913  14.6913
    15.0275  15.0275  15.4506  15.4506  20.8169  20.8170

     occupation numbers 
     1.0000   1.0000   1.0000   1.0000   1.0000   1.0000   1.0000   1.0000
     1.0000   1.0000   1.0000   1.0000   1.0000   1.0000   1.0000   1.0000
     1.0000   1.0000   1.0000   1.0000   1.0000   1.0000   1.0000   1.0000
     1.0000   1.0000   1.0000   1.0000   1.0000   1.0000   1.0000   1.0000
     1.0000   1.0000   1.0000   1.0000   1.0000   1.0000   1.0000   1.0000
     1.0000   1.0000   1.0000   1.0000   1.0000   1.0000   1.0000   1.0000
     0.0011   0.0011   0.0000   0.0000   0.0000   0.0000   0.0000   0.0000
     0.0000   0.0000   0.0000   0.0000   0.0000   0.0000   0.0000   0.0000
     0.0000   0.0000   0.0000   0.0000   0.0000   0.0000

          k =-0.5000-0.2213 0.2213 (  7892 PWs)   bands (ev):

   -54.4848 -54.4848 -54.4433 -54.4433 -28.6180 -28.6180 -28.5970 -28.5970
   -28.4456 -28.4456 -28.1678 -28.1678 -28.1073 -28.1073 -28.0494 -28.0494
    -8.3007  -8.3007  -7.4996  -7.4996  -7.3265  -7.3265  -7.2397  -7.2397
     4.2863   4.2863   4.6367   4.6367   4.9244   4.9244   5.1558   5.1558
     5.6727   5.6727   5.9770   5.9770   6.2140   6.2140   6.9845   6.9845
     7.1357   7.1357   7.8567   7.8567   8.1019   8.1019   8.9242   8.9242
    11.0935  11.0935  11.1301  11.1301  11.8618  11.8618  12.1781  12.1781
    12.5351  12.5351  12.9282  12.9282  13.9343  13.9343  14.2233  14.2233
    14.9670  14.9670  16.0199  16.0199  20.0083  20.0083

     occupation numbers 
     1.0000   1.0000   1.0000   1.0000   1.0000   1.0000   1.0000   1.0000
     1.0000   1.0000   1.0000   1.0000   1.0000   1.0000   1.0000   1.0000
     1.0000   1.0000   1.0000   1.0000   1.0000   1.0000   1.0000   1.0000
     1.0000   1.0000   1.0000   1.0000   1.0000   1.0000   1.0000   1.0000
     1.0000   1.0000   1.0000   1.0000   1.0000   1.0000   1.0000   1.0000
     1.0000   1.0000   1.0000   1.0000   1.0000   1.0000   1.0000   1.0000
     1.0000   1.0000   0.0000   0.0000   0.0000   0.0000   0.0000   0.0000
     0.0000   0.0000   0.0000   0.0000   0.0000   0.0000   0.0000   0.0000
     0.0000   0.0000   0.0000   0.0000   0.0000   0.0000

          k =-0.5000-0.1107 0.1107 (  7887 PWs)   bands (ev):

   -54.4856 -54.4840 -54.4445 -54.4422 -28.6211 -28.6151 -28.5994 -28.5945
   -28.4511 -28.4400 -28.1694 -28.1658 -28.1096 -28.1051 -28.0505 -28.0484
    -8.4197  -8.1194  -7.6826  -7.3976  -7.3286  -7.3207  -7.2345  -7.2292
     4.1894   4.3466   4.6502   4.7252   4.9056   4.9289   5.0314   5.3303
     5.4250   5.8307   5.9055   5.9814   6.0449   6.5829   6.7327   6.9177
     7.2659   7.3492   7.6231   7.8803   7.9370   8.3292   8.8541   8.9231
    10.9884  11.1041  11.2198  11.2315  11.7818  11.9712  12.0771  12.2575
    12.5735  12.5808  12.8306  13.0110  13.7915  13.8599  14.1255  14.4441
    14.7997  15.2721  15.9224  15.9318  19.5896  20.6210

     occupation numbers 
     1.0000   1.0000   1.0000   1.0000   1.0000   1.0000   1.0000   1.0000
     1.0000   1.0000   1.0000   1.0000   1.0000   1.0000   1.0000   1.0000
     1.0000   1.0000   1.0000   1.0000   1.0000   1.0000   1.0000   1.0000
     1.0000   1.0000   1.0000   1.0000   1.0000   1.0000   1.0000   1.0000
     1.0000   1.0000   1.0000   1.0000   1.0000   1.0000   1.0000   1.0000
     1.0000   1.0000   1.0000   1.0000   1.0000   1.0000   1.0000   1.0000
     1.0000   1.0000   0.0000   0.0000   0.0000   0.0000   0.0000   0.0000
     0.0000   0.0000   0.0000   0.0000   0.0000   0.0000   0.0000   0.0000
     0.0000   0.0000   0.0000   0.0000   0.0000   0.0000

          k =-0.5000-0.3689 0.0738 (  7886 PWs)   bands (ev):

   -54.4848 -54.4848 -54.4433 -54.4433 -28.6183 -28.6183 -28.5974 -28.5974
   -28.4454 -28.4454 -28.1677 -28.1677 -28.1072 -28.1072 -28.0496 -28.0496
    -8.2424  -8.2424  -7.5310  -7.5310  -7.3342  -7.3342  -7.2655  -7.2655
     4.2452   4.2452   4.5896   4.5896   4.9870   4.9870   5.2174   5.2174
     5.6406   5.6406   5.9324   5.9324   6.3835   6.3835   6.8543   6.8543
     7.2861   7.2861   7.6839   7.6839   8.1800   8.1800   8.8585   8.8585
    11.0108  11.0108  11.2241  11.2241  11.7964  11.7964  12.2866  12.2866
    12.6186  12.6186  12.8850  12.8850  13.7343  13.7343  14.4411  14.4411
    14.9299  14.9299  15.9485  15.9485  20.2205  20.2205

     occupation numbers 
     1.0000   1.0000   1.0000   1.0000   1.0000   1.0000   1.0000   1.0000
     1.0000   1.0000   1.0000   1.0000   1.0000   1.0000   1.0000   1.0000
     1.0000   1.0000   1.0000   1.0000   1.0000   1.0000   1.0000   1.0000
     1.0000   1.0000   1.0000   1.0000   1.0000   1.0000   1.0000   1.0000
     1.0000   1.0000   1.0000   1.0000   1.0000   1.0000   1.0000   1.0000
     1.0000   1.0000   1.0000   1.0000   1.0000   1.0000   1.0000   1.0000
     1.0000   1.0000   0.0000   0.0000   0.0000   0.0000   0.0000   0.0000
     0.0000   0.0000   0.0000   0.0000   0.0000   0.0000   0.0000   0.0000
     0.0000   0.0000   0.0000   0.0000   0.0000   0.0000

          k =-0.5000-0.2582-0.0369 (  7888 PWs)   bands (ev):

   -54.4855 -54.4841 -54.4443 -54.4424 -28.6210 -28.6158 -28.5994 -28.5951
   -28.4502 -28.4406 -28.1692 -28.1659 -28.1093 -28.1053 -28.0506 -28.0487
    -8.3508  -8.0781  -7.6885  -7.4422  -7.3458  -7.3226  -7.2748  -7.2429
     4.2216   4.3101   4.5788   4.6297   4.8321   5.0138   5.0661   5.3022
     5.6300   5.6659   5.9395   6.0953   6.2488   6.5039   6.8292   7.0012
     7.1136   7.3011   7.6012   7.7391   8.1461   8.2606   8.7199   8.9234
    10.9609  11.1204  11.2391  11.2795  11.7974  11.8285  12.2372  12.2854
    12.5638  12.6259  12.7976  12.9541  13.6636  13.8887  14.2759  14.5544
    14.7289  15.2308  15.7747  15.9763  19.8423  20.7765

     occupation numbers 
     1.0000   1.0000   1.0000   1.0000   1.0000   1.0000   1.0000   1.0000
     1.0000   1.0000   1.0000   1.0000   1.0000   1.0000   1.0000   1.0000
     1.0000   1.0000   1.0000   1.0000   1.0000   1.0000   1.0000   1.0000
     1.0000   1.0000   1.0000   1.0000   1.0000   1.0000   1.0000   1.0000
     1.0000   1.0000   1.0000   1.0000   1.0000   1.0000   1.0000   1.0000
     1.0000   1.0000   1.0000   1.0000   1.0000   1.0000   1.0000   1.0000
     1.0000   0.0101   0.0000   0.0000   0.0000   0.0000   0.0000   0.0000
     0.0000   0.0000   0.0000   0.0000   0.0000   0.0000   0.0000   0.0000
     0.0000   0.0000   0.0000   0.0000   0.0000   0.0000

          k =-0.5000-0.5165-0.0738 (  7896 PWs)   bands (ev):

   -54.4847 -54.4847 -54.4434 -54.4434 -28.6188 -28.6188 -28.5981 -28.5981
   -28.4450 -28.4450 -28.1675 -28.1675 -28.1070 -28.1070 -28.0501 -28.0501
    -8.0835  -8.0835  -7.6518  -7.6518  -7.3569  -7.3569  -7.2943  -7.2943
     4.2541   4.2541   4.4976   4.4976   4.9436   4.9436   5.1910   5.1910
     5.7362   5.7362   6.1722   6.1722   6.4763   6.4763   6.7992   6.7992
     7.2826   7.2826   7.6114   7.6114   8.1592   8.1592   8.6658   8.6658
    11.0210  11.0210  11.3352  11.3352  11.8020  11.8020  12.3864  12.3864
    12.6234  12.6234  12.7662  12.7662  13.6821  13.6821  14.6223  14.6223
    14.9716  14.9716  15.7175  15.7175  20.7967  20.7967

     occupation numbers 
     1.0000   1.0000   1.0000   1.0000   1.0000   1.0000   1.0000   1.0000
     1.0000   1.0000   1.0000   1.0000   1.0000   1.0000   1.0000   1.0000
     1.0000   1.0000   1.0000   1.0000   1.0000   1.0000   1.0000   1.0000
     1.0000   1.0000   1.0000   1.0000   1.0000   1.0000   1.0000   1.0000
     1.0000   1.0000   1.0000   1.0000   1.0000   1.0000   1.0000   1.0000
     1.0000   1.0000   1.0000   1.0000   1.0000   1.0000   1.0000   1.0000
     1.0000   1.0000   0.0000   0.0000   0.0000   0.0000   0.0000   0.0000
     0.0000   0.0000   0.0000   0.0000   0.0000   0.0000   0.0000   0.0000
     0.0000   0.0000   0.0000   0.0000   0.0000   0.0000

          k =-0.5000-0.4058-0.1845 (  7890 PWs)   bands (ev):

   -54.4851 -54.4843 -54.4440 -54.4428 -28.6205 -28.6175 -28.5990 -28.5965
   -28.4478 -28.4424 -28.1685 -28.1664 -28.1083 -28.1059 -28.0505 -28.0494
    -8.1609  -7.9689  -7.7275  -7.6143  -7.3780  -7.3543  -7.2989  -7.2692
     4.2179   4.3043   4.4756   4.5396   4.7710   5.0147   5.0929   5.2597
     5.6663   5.9554   6.0269   6.1614   6.5039   6.5921   6.8328   6.8614
     7.0757   7.3487   7.5041   7.7824   8.0352   8.3027   8.4733   8.7930
    11.0082  11.0604  11.3065  11.4294  11.7331  11.8762  12.3245  12.3832
    12.5516  12.5861  12.7516  12.7919  13.6946  13.7660  14.5096  14.6971
    14.8002  15.2290  15.4624  15.8829  20.5209  21.2044

     occupation numbers 
     1.0000   1.0000   1.0000   1.0000   1.0000   1.0000   1.0000   1.0000
     1.0000   1.0000   1.0000   1.0000   1.0000   1.0000   1.0000   1.0000
     1.0000   1.0000   1.0000   1.0000   1.0000   1.0000   1.0000   1.0000
     1.0000   1.0000   1.0000   1.0000   1.0000   1.0000   1.0000   1.0000
     1.0000   1.0000   1.0000   1.0000   1.0000   1.0000   1.0000   1.0000
     1.0000   1.0000   1.0000   1.0000   1.0000   1.0000   1.0000   1.0000
     1.0000   1.0000   0.0000   0.0000   0.0000   0.0000   0.0000   0.0000
     0.0000   0.0000   0.0000   0.0000   0.0000   0.0000   0.0000   0.0000
     0.0000   0.0000   0.0000   0.0000   0.0000   0.0000

          k =-0.5000 0.2213 0.6640 (  7896 PWs)   bands (ev):

   -54.4847 -54.4847 -54.4434 -54.4434 -28.6190 -28.6190 -28.5985 -28.5985
   -28.4448 -28.4448 -28.1674 -28.1674 -28.1069 -28.1069 -28.0503 -28.0503
    -7.9002  -7.9002  -7.8242  -7.8242  -7.3681  -7.3681  -7.3007  -7.3007
     4.2810   4.2810   4.5318   4.5318   4.7645   4.7645   5.1347   5.1347
     6.0635   6.0635   6.1108   6.1108   6.6895   6.6895   6.6907   6.6907
     7.1945   7.1945   7.5302   7.5302   8.3512   8.3512   8.3964   8.3964
    11.0500  11.0500  11.4069  11.4069  11.8621  11.8621  12.4071  12.4071
    12.5663  12.5663  12.6398  12.6398  13.7926  13.7926  14.5610  14.5610
    15.2956  15.2956  15.3872  15.3872  21.5260  21.5261

     occupation numbers 
     1.0000   1.0000   1.0000   1.0000   1.0000   1.0000   1.0000   1.0000
     1.0000   1.0000   1.0000   1.0000   1.0000   1.0000   1.0000   1.0000
     1.0000   1.0000   1.0000   1.0000   1.0000   1.0000   1.0000   1.0000
     1.0000   1.0000   1.0000   1.0000   1.0000   1.0000   1.0000   1.0000
     1.0000   1.0000   1.0000   1.0000   1.0000   1.0000   1.0000   1.0000
     1.0000   1.0000   1.0000   1.0000   1.0000   1.0000   1.0000   1.0000
     1.0000   1.0000   0.0000   0.0000   0.0000   0.0000   0.0000   0.0000
     0.0000   0.0000   0.0000   0.0000   0.0000   0.0000   0.0000   0.0000
     0.0000   0.0000   0.0000   0.0000   0.0000   0.0000

          k =-0.5000 0.3320 0.5534 (  7892 PWs)   bands (ev):

   -54.4847 -54.4847 -54.4434 -54.4434 -28.6193 -28.6193 -28.5981 -28.5981
   -28.4450 -28.4450 -28.1674 -28.1674 -28.1070 -28.1070 -28.0501 -28.0501
    -7.9092  -7.9092  -7.8102  -7.8102  -7.3840  -7.3840  -7.2891  -7.2891
     4.2480   4.2480   4.4697   4.4697   4.8641   4.8641   5.1969   5.1969
     5.8001   5.8001   6.3091   6.3091   6.4555   6.4555   6.9003   6.9003
     7.3318   7.3318   7.4720   7.4720   8.1535   8.1535   8.5646   8.5646
    11.0445  11.0445  11.4237  11.4237  11.8207  11.8207  12.3786  12.3786
    12.5672  12.5672  12.6986  12.6986  13.7228  13.7228  14.6363  14.6363
    15.0879  15.0879  15.5655  15.5655  21.4349  21.4350

     occupation numbers 
     1.0000   1.0000   1.0000   1.0000   1.0000   1.0000   1.0000   1.0000
     1.0000   1.0000   1.0000   1.0000   1.0000   1.0000   1.0000   1.0000
     1.0000   1.0000   1.0000   1.0000   1.0000   1.0000   1.0000   1.0000
     1.0000   1.0000   1.0000   1.0000   1.0000   1.0000   1.0000   1.0000
     1.0000   1.0000   1.0000   1.0000   1.0000   1.0000   1.0000   1.0000
     1.0000   1.0000   1.0000   1.0000   1.0000   1.0000   1.0000   1.0000
     1.0000   1.0000   0.0000   0.0000   0.0000   0.0000   0.0000   0.0000
     0.0000   0.0000   0.0000   0.0000   0.0000   0.0000   0.0000   0.0000
     0.0000   0.0000   0.0000   0.0000   0.0000   0.0000

     the Fermi energy is    11.1187 ev

!    total energy              =    -839.57730059 Ry
     estimated scf accuracy    <       0.00000002 Ry
     smearing contrib. (-TS)   =      -0.00000006 Ry
     internal energy E=F+TS    =    -839.57730053 Ry

     The total energy is F=E-TS. E is the sum of the following terms:
     one-electron contribution =    -320.84670310 Ry
     hartree contribution      =     210.19336430 Ry
     xc contribution           =    -136.59419271 Ry
     ewald contribution        =    -592.32976903 Ry

     convergence has been achieved in  10 iterations

     Writing all to output data dir ./out/m1.save/

     init_run     :      4.64s CPU      4.73s WALL (       1 calls)
     electrons    :     72.87s CPU     74.61s WALL (       1 calls)

     Called by init_run:
     wfcinit      :      2.49s CPU      2.53s WALL (       1 calls)
     wfcinit:atom :      0.02s CPU      0.02s WALL (      84 calls)
     wfcinit:wfcr :      2.23s CPU      2.27s WALL (      84 calls)
     potinit      :      0.73s CPU      0.74s WALL (       1 calls)
     hinit0       :      1.15s CPU      1.16s WALL (       1 calls)

     Called by electrons:
     c_bands      :     61.99s CPU     63.48s WALL (      10 calls)
     sum_band     :      9.93s CPU     10.13s WALL (      10 calls)
     v_of_rho     :      0.36s CPU      0.37s WALL (      11 calls)
     v_h          :      0.02s CPU      0.02s WALL (      11 calls)
     v_xc         :      0.34s CPU      0.35s WALL (      11 calls)
     newd         :      0.57s CPU      0.59s WALL (      11 calls)
     mix_rho      :      0.03s CPU      0.03s WALL (      10 calls)

     Called by c_bands:
     init_us_2    :      0.55s CPU      0.59s WALL (    1764 calls)
     init_us_2:cp :      0.55s CPU      0.59s WALL (    1764 calls)
     cegterg      :     58.32s CPU     59.16s WALL (     840 calls)

     Called by sum_band:
     sum_band:wei :      0.03s CPU      0.03s WALL (      10 calls)
     sum_band:loo :      8.91s CPU      9.09s WALL (      10 calls)
     sum_band:buf :      0.06s CPU      0.06s WALL (     840 calls)
     sum_band:ini :      0.23s CPU      0.24s WALL (     840 calls)
     sum_band:cal :      1.32s CPU      1.33s WALL (     840 calls)
     sum_band:bec :      0.07s CPU      0.07s WALL (     840 calls)
     addusdens    :      0.70s CPU      0.72s WALL (      10 calls)
                                        0.00s GPU  (      10 calls)
     addusd:skk   :      0.00s CPU      0.00s WALL (      20 calls)
                                        0.00s GPU  (      20 calls)

     Called by *egterg:
     cdiaghg      :     11.13s CPU     11.18s WALL (    2696 calls)
     cegterg:over :      2.76s CPU      2.78s WALL (    1856 calls)
     cegterg:upda :      1.01s CPU      1.01s WALL (    1856 calls)
     cegterg:last :      2.29s CPU      2.31s WALL (    1447 calls)
     h_psi        :     38.57s CPU     39.34s WALL (    2780 calls)
     s_psi        :      2.34s CPU      2.36s WALL (    2780 calls)
     g_psi        :      0.13s CPU      0.13s WALL (    1856 calls)

     Called by h_psi:
     h_psi:calbec :      4.08s CPU      4.12s WALL (    2780 calls)
     vloc_psi     :     31.77s CPU     32.48s WALL (    2780 calls)
     add_vuspsi   :      2.56s CPU      2.58s WALL (    2780 calls)

     General routines
     calbec       :      5.39s CPU      5.44s WALL (    3620 calls)
     fft          :      0.78s CPU      0.79s WALL (     141 calls)
     ffts         :      0.43s CPU      0.43s WALL (      21 calls)
     fftw         :     30.26s CPU     30.85s WALL (  335166 calls)
     interpolate  :      0.44s CPU      0.44s WALL (      11 calls)

     Parallel routines

     PWSCF        :   1m18.80s CPU   1m21.93s WALL


   This run was terminated on:  15:40:51  13Sep2023            

=------------------------------------------------------------------------------=
   JOB DONE.
=------------------------------------------------------------------------------=
